n -t * -s 0  -x 0 -y 0 -Z 0 -z 20  -v circle -c black
n -t * -s 1  -x 0 -y 0 -Z 0 -z 20  -v circle -c black
n -t * -s 2  -x 0 -y 0 -Z 0 -z 20  -v circle -c black
n -t * -s 3  -x 0 -y 0 -Z 0 -z 20  -v circle -c black
n -t * -s 4  -x 0 -y 0 -Z 0 -z 20  -v circle -c black
n -t * -s 5  -x 0 -y 0 -Z 0 -z 20  -v circle -c black
n -t * -s 6  -x 0 -y 0 -Z 0 -z 20  -v circle -c black
n -t * -s 7  -x 0 -y 0 -Z 0 -z 20  -v circle -c black
n -t * -s 8  -x 0 -y 0 -Z 0 -z 20  -v circle -c black
n -t * -s 9  -x 0 -y 0 -Z 0 -z 20  -v circle -c black
n -t * -s 10  -x 0 -y 0 -Z 0 -z 20  -v circle -c black
n -t * -s 11  -x 0 -y 0 -Z 0 -z 20  -v circle -c black
n -t * -s 12  -x 0 -y 0 -Z 0 -z 20  -v circle -c black
n -t * -s 13  -x 0 -y 0 -Z 0 -z 20  -v circle -c black
n -t * -s 14  -x 0 -y 0 -Z 0 -z 20  -v circle -c black
n -t * -s 15  -x 0 -y 0 -Z 0 -z 20  -v circle -c black
n -t * -s 16  -x 0 -y 0 -Z 0 -z 20  -v circle -c black
n -t * -s 17  -x 0 -y 0 -Z 0 -z 20  -v circle -c black
n -t * -s 18  -x 0 -y 0 -Z 0 -z 20  -v circle -c black
n -t * -s 19  -x 0 -y 0 -Z 0 -z 20  -v circle -c black
n -t * -s 20  -x 0 -y 0 -Z 0 -z 20  -v circle -c black
n -t * -s 21  -x 0 -y 0 -Z 0 -z 20  -v circle -c black
n -t * -s 22  -x 0 -y 0 -Z 0 -z 20  -v circle -c black
n -t * -s 23  -x 0 -y 0 -Z 0 -z 20  -v circle -c black
n -t * -s 24  -x 0 -y 0 -Z 0 -z 20  -v circle -c black
n -t * -s 25  -x 0 -y 0 -Z 0 -z 20  -v circle -c black
n -t * -s 26  -x 0 -y 0 -Z 0 -z 20  -v circle -c black
n -t * -s 27  -x 0 -y 0 -Z 0 -z 20  -v circle -c black
n -t * -s 28  -x 0 -y 0 -Z 0 -z 20  -v circle -c black
n -t * -s 29  -x 0 -y 0 -Z 0 -z 20  -v circle -c black
V -t * -v 1.0a5 -a 0
W -t * -x 2827 -y 3020
A -t * -n 1 -p 0 -o 0x7fffffff -c 30 -a 1
A -t * -h 1 -m 1073741823 -s 0
n -t 0.000000 -s 0 -x 1309.750000 -y 1274.270000 -U 0.000000 -V 0.000000 -T 0.000000
n -t 0.100000 -s 0 -x 1309.750000 -y 1274.270000 -U 0.250000 -V 0.000000 -T 0.080000
n -t 0.200000 -s 0 -x 1309.770000 -y 1274.270000 -U 0.490000 -V 0.000000 -T 0.102041
n -t 0.300000 -s 0 -x 1309.819000 -y 1274.270000 -U 0.750000 -V 0.000000 -T 0.094667
n -t 0.400000 -s 0 -x 1309.890000 -y 1274.270000 -U 0.975136 -V -0.097514 -T 0.102550
n -t 0.500000 -s 0 -x 1309.987514 -y 1274.260249 -U 1.209998 -V -0.002456 -T 0.101229
n -t 0.600000 -s 0 -x 1310.108513 -y 1274.260003 -U 1.456827 -V -0.096198 -T 0.103984
n -t 0.700000 -s 0 -x 1310.254196 -y 1274.250383 -U 1.659996 -V -0.003619 -T 0.105906
n -t 0.800000 -s 0 -x 1310.420196 -y 1274.250021 -U 1.897357 -V -0.100178 -T 0.100036
n -t 0.900000 -s 0 -x 1310.609931 -y 1274.240004 -U 2.097623 -V -0.099890 -T 0.100146
n -t 1.000000 -s 0 -x 1310.819694 -y 1274.230015 -U 2.267857 -V -0.098615 -T 0.101552
n -t 1.100000 -s 0 -x 1311.046479 -y 1274.220153 -U 2.527974 -V -0.101241 -T 0.100286
n -t 1.200000 -s 0 -x 1311.299277 -y 1274.210029 -U 2.698149 -V -0.099953 -T 0.100337
n -t 1.300000 -s 0 -x 1311.569092 -y 1274.200034 -U 2.898277 -V -0.099964 -T 0.100373
n -t 1.400000 -s 0 -x 1311.858919 -y 1274.190037 -U 3.098388 -V -0.099972 -T 0.100401
n -t 1.500000 -s 0 -x 1312.168758 -y 1274.180040 -U 3.283995 -V -0.198681 -T 0.100866
n -t 1.600000 -s 0 -x 1312.497158 -y 1274.160172 -U 3.508542 -V -0.101146 -T 0.100567
n -t 1.700000 -s 0 -x 1312.848012 -y 1274.150057 -U 3.764814 -V -0.197682 -T 0.101463
n -t 1.800000 -s 0 -x 1313.224493 -y 1274.130289 -U 3.908678 -V -0.101685 -T 0.101187
n -t 1.900000 -s 0 -x 1313.615361 -y 1274.120121 -U 4.125146 -V -0.200176 -T 0.100515
n -t 2.000000 -s 0 -x 1314.027876 -y 1274.100103 -U 4.295354 -V -0.199826 -T 0.100603
n -t 2.100000 -s 0 -x 1314.457411 -y 1274.080120 -U 4.558909 -V -0.099739 -T 0.101469
n -t 2.200000 -s 0 -x 1314.913302 -y 1274.070147 -U 4.745764 -V -0.200569 -T 0.100447
n -t 2.300000 -s 0 -x 1315.387878 -y 1274.050090 -U 4.966027 -V -0.198689 -T 0.101111
n -t 2.400000 -s 0 -x 1315.884481 -y 1274.030221 -U 5.146043 -V -0.201849 -T 0.100178
n -t 2.500000 -s 0 -x 1316.399085 -y 1274.010036 -U 5.271571 -V -0.298233 -T 0.100713
n -t 2.600000 -s 0 -x 1316.926242 -y 1273.980213 -U 5.436246 -V -0.202076 -T 0.100024
n -t 2.700000 -s 0 -x 1317.469867 -y 1273.960005 -U 5.576445 -V -0.199161 -T 0.100446
n -t 2.800000 -s 0 -x 1318.027511 -y 1273.940089 -U 5.786560 -V -0.199567 -T 0.100662
n -t 2.900000 -s 0 -x 1318.606167 -y 1273.920132 -U 5.972568 -V -0.298040 -T 0.101101
n -t 3.000000 -s 0 -x 1319.203424 -y 1273.890328 -U 6.206734 -V -0.201367 -T 0.100951
n -t 3.100000 -s 0 -x 1319.824098 -y 1273.870191 -U 6.452954 -V -0.301631 -T 0.100094
n -t 3.200000 -s 0 -x 1320.469393 -y 1273.840028 -U 6.683303 -V -0.299264 -T 0.100341
n -t 3.300000 -s 0 -x 1321.137723 -y 1273.810102 -U 6.847114 -V -0.198823 -T 0.101105
n -t 3.400000 -s 0 -x 1321.822435 -y 1273.790220 -U 7.083542 -V -0.302534 -T 0.099889
n -t 3.500000 -s 0 -x 1322.530000 -y 1273.760000 -U 7.213911 -V -0.296462 -T 0.101193
n -t 3.600000 -s 0 -x 1323.251391 -y 1273.730354 -U 7.473859 -V -0.303042 -T 0.100164
n -t 3.700000 -s 0 -x 1323.998777 -y 1273.700050 -U 7.644200 -V -0.297845 -T 0.100890
n -t 3.800000 -s 0 -x 1324.763197 -y 1273.670265 -U 7.854192 -V -0.302118 -T 0.100176
n -t 3.900000 -s 0 -x 1325.548616 -y 1273.640053 -U 8.100137 -V -0.399856 -T 0.100169
n -t 4.000000 -s 0 -x 1326.358630 -y 1273.600068 -U 8.344673 -V -0.298210 -T 0.100827
n -t 4.000000 -s 1 -x 1296.230000 -y 1344.870000 -U 0.000000 -V 0.000000 -T 0.000000
n -t 4.100000 -s 0 -x 1327.193097 -y 1273.570247 -U 8.550574 -V -0.401600 -T 0.100216
n -t 4.100000 -s 1 -x 1296.230000 -y 1344.870000 -U 0.000000 -V -0.250000 -T 0.080000
n -t 4.200000 -s 0 -x 1328.048154 -y 1273.530087 -U 8.774894 -V -0.299381 -T 0.100496
n -t 4.200000 -s 1 -x 1296.230000 -y 1344.850000 -U 0.000000 -V -0.500000 -T 0.100000
n -t 4.300000 -s 0 -x 1328.925644 -y 1273.500149 -U 9.011124 -V -0.400046 -T 0.100360
n -t 4.300000 -s 1 -x 1296.230000 -y 1344.800000 -U 0.091786 -V -0.734286 -T 0.108949
n -t 4.400000 -s 0 -x 1329.826756 -y 1273.460144 -U 9.245178 -V -0.298622 -T 0.100944
n -t 4.400000 -s 1 -x 1296.239179 -y 1344.726571 -U 0.008165 -V -0.959965 -T 0.100599
n -t 4.500000 -s 0 -x 1330.751274 -y 1273.430282 -U 9.491448 -V -0.402996 -T 0.099956
n -t 4.500000 -s 1 -x 1296.239995 -y 1344.630575 -U 0.000048 -V -1.180000 -T 0.102182
n -t 4.600000 -s 0 -x 1331.700000 -y 1273.390000 -U 9.661789 -V -0.398424 -T 0.100395
n -t 4.600000 -s 1 -x 1296.240000 -y 1344.512575 -U 0.097954 -V -1.396569 -T 0.102089
n -t 4.700000 -s 0 -x 1332.666179 -y 1273.350158 -U 9.831813 -V -0.401315 -T 0.100065
n -t 4.700000 -s 1 -x 1296.249795 -y 1344.372918 -U 0.001985 -V -1.579999 -T 0.103113
n -t 4.800000 -s 0 -x 1333.649360 -y 1273.310026 -U 9.962033 -V -0.398487 -T 0.100445
n -t 4.800000 -s 1 -x 1296.249994 -y 1344.214918 -U 0.097799 -V -1.807356 -T 0.102314
n -t 4.900000 -s 0 -x 1334.645563 -y 1273.270177 -U 10.162188 -V -0.398552 -T 0.100809
n -t 4.900000 -s 1 -x 1296.259774 -y 1344.034183 -U 0.100543 -V -2.007484 -T 0.101711
n -t 5.000000 -s 0 -x 1335.661782 -y 1273.230322 -U 10.402306 -V -0.400150 -T 0.100768
n -t 5.000000 -s 1 -x 1296.269828 -y 1343.833434 -U 0.001741 -V -2.159999 -T 0.098812
n -t 5.000000 -s 2 -x 1916.160000 -y 1246.570000 -U 0.000000 -V 0.000000 -T 0.000000
n -t 5.100000 -s 0 -x 1336.702013 -y 1273.190307 -U 10.628215 -V -0.500639 -T 0.100486
n -t 5.100000 -s 1 -x 1296.270000 -y 1343.620000 -U 0.097415 -V -2.337971 -T 0.102653
n -t 5.100000 -s 2 -x 1916.160000 -y 1246.570000 -U -0.260000 -V 0.000000 -T 0.115385
n -t 5.200000 -s 0 -x 1337.764834 -y 1273.140243 -U 10.892648 -V -0.400265 -T 0.100542
n -t 5.200000 -s 1 -x 1296.279742 -y 1343.386203 -U 0.098965 -V -2.568094 -T 0.103658
n -t 5.200000 -s 2 -x 1916.134000 -y 1246.570000 -U -0.491641 -V -0.091045 -T 0.109836
n -t 5.300000 -s 0 -x 1338.854099 -y 1273.100217 -U 11.028636 -V -0.500789 -T 0.100275
n -t 5.300000 -s 1 -x 1296.289638 -y 1343.129393 -U 0.100908 -V -2.818194 -T 0.102688
n -t 5.300000 -s 2 -x 1916.084836 -y 1246.560896 -U -0.759946 -V -0.009094 -T 0.098475
n -t 5.400000 -s 0 -x 1339.956963 -y 1273.050138 -U 11.162873 -V -0.398967 -T 0.100605
n -t 5.400000 -s 1 -x 1296.299729 -y 1342.847574 -U 0.101462 -V -3.038306 -T 0.101232
n -t 5.400000 -s 2 -x 1916.010000 -y 1246.560000 -U -0.995037 -V -0.099504 -T 0.100499
n -t 5.500000 -s 0 -x 1341.073250 -y 1273.010241 -U 11.409056 -V -0.499852 -T 0.100512
n -t 5.500000 -s 1 -x 1296.309875 -y 1342.543743 -U 0.100656 -V -3.218426 -T 0.100591
n -t 5.500000 -s 2 -x 1915.910496 -y 1246.550050 -U -1.246310 -V -0.095979 -T 0.104706
n -t 5.600000 -s 0 -x 1342.214156 -y 1272.960256 -U 11.643061 -V -0.402029 -T 0.100132
n -t 5.600000 -s 1 -x 1296.319941 -y 1342.221901 -U 0.099439 -V -3.478579 -T 0.101162
n -t 5.600000 -s 2 -x 1915.785865 -y 1246.540452 -U -1.496639 -V -0.100359 -T 0.104144
n -t 5.700000 -s 0 -x 1343.378462 -y 1272.920053 -U 11.809408 -V -0.500278 -T 0.100051
n -t 5.700000 -s 1 -x 1296.329884 -y 1341.874043 -U 0.198157 -V -3.684676 -T 0.101513
n -t 5.700000 -s 2 -x 1915.636201 -y 1246.530416 -U -1.728437 -V -0.200268 -T 0.101943
n -t 5.800000 -s 0 -x 1344.559403 -y 1272.870025 -U 12.039725 -V -0.497515 -T 0.100550
n -t 5.800000 -s 1 -x 1296.349700 -y 1341.505575 -U 0.100471 -V -3.858692 -T 0.102515
n -t 5.800000 -s 2 -x 1915.463358 -y 1246.510389 -U -1.947460 -V -0.099491 -T 0.104422
n -t 5.900000 -s 0 -x 1345.763375 -y 1272.820274 -U 12.219741 -V -0.500831 -T 0.100381
n -t 5.900000 -s 1 -x 1296.359747 -y 1341.119706 -U 0.101818 -V -4.068726 -T 0.100696
n -t 5.900000 -s 2 -x 1915.268612 -y 1246.500440 -U -2.150620 -V -0.201081 -T 0.101651
n -t 6.000000 -s 0 -x 1346.985349 -y 1272.770191 -U 12.379939 -V -0.499222 -T 0.100538
n -t 6.000000 -s 1 -x 1296.369929 -y 1340.712834 -U 0.197328 -V -4.255427 -T 0.101713
n -t 6.000000 -s 2 -x 1915.053550 -y 1246.480332 -U -2.361784 -V -0.197165 -T 0.103121
n -t 6.000000 -s 3 -x 1672.810000 -y 1430.950000 -U 0.000000 -V 0.000000 -T 0.000000
n -t 6.100000 -s 0 -x 1348.223343 -y 1272.720268 -U 12.589931 -V -0.503619 -T 0.099814
n -t 6.100000 -s 1 -x 1296.389662 -y 1340.287291 -U 0.101437 -V -4.388828 -T 0.101916
n -t 6.100000 -s 2 -x 1914.817371 -y 1246.460615 -U -2.612247 -V -0.201414 -T 0.102353
n -t 6.100000 -s 3 -x 1672.810000 -y 1430.950000 -U -0.246658 -V -0.082219 -T 0.121626
n -t 6.200000 -s 0 -x 1349.480000 -y 1272.670000 -U 12.830366 -V -0.497301 -T 0.100543
n -t 6.200000 -s 1 -x 1296.399806 -y 1339.848408 -U 0.199808 -V -4.535601 -T 0.101069
n -t 6.200000 -s 2 -x 1914.556147 -y 1246.440474 -U -2.692610 -V -0.199634 -T 0.102557
n -t 6.200000 -s 3 -x 1672.785334 -y 1430.941778 -U -0.489747 -V -0.015737 -T 0.112985
n -t 6.300000 -s 0 -x 1350.763037 -y 1272.620270 -U 13.026157 -V -0.600694 -T 0.100334
n -t 6.300000 -s 1 -x 1296.419786 -y 1339.394848 -U 0.101930 -V -4.738904 -T 0.100202
n -t 6.300000 -s 2 -x 1914.286886 -y 1246.420511 -U -2.672592 -V -0.305532 -T 0.099860
n -t 6.300000 -s 3 -x 1672.736360 -y 1430.940204 -U -0.733480 -V -0.098019 -T 0.104106
n -t 6.400000 -s 0 -x 1352.065652 -y 1272.560200 -U 13.180534 -V -0.499619 -T 0.100478
n -t 6.400000 -s 1 -x 1296.429979 -y 1338.920957 -U 0.196869 -V -4.926068 -T 0.101695
n -t 6.400000 -s 2 -x 1914.020000 -y 1246.390000 -U -2.642760 -V -0.195760 -T 0.102166
n -t 6.400000 -s 3 -x 1672.663012 -y 1430.930402 -U -0.979993 -V -0.003829 -T 0.105115
n -t 6.500000 -s 0 -x 1353.383706 -y 1272.510239 -U 13.380687 -V -0.499316 -T 0.100615
n -t 6.500000 -s 1 -x 1296.449666 -y 1338.428351 -U 0.201476 -V -5.136050 -T 0.100924
n -t 6.500000 -s 2 -x 1913.755724 -y 1246.370424 -U -2.682650 -V -0.198715 -T 0.102780
n -t 6.500000 -s 3 -x 1672.565012 -y 1430.930020 -U -1.226068 -V -0.098268 -T 0.101962
n -t 6.600000 -s 0 -x 1354.721774 -y 1272.460307 -U 13.576624 -V -0.602819 -T 0.100041
n -t 6.600000 -s 1 -x 1296.469814 -y 1337.914746 -U 0.200682 -V -5.316214 -T 0.100588
n -t 6.600000 -s 2 -x 1913.487459 -y 1246.350553 -U -2.672122 -V -0.205336 -T 0.100092
n -t 6.600000 -s 3 -x 1672.442405 -y 1430.920193 -U -1.457265 -V -0.193079 -T 0.104583
n -t 6.700000 -s 0 -x 1356.079437 -y 1272.400025 -U 13.750976 -V -0.498270 -T 0.100397
n -t 6.700000 -s 1 -x 1296.489882 -y 1337.383124 -U 0.099883 -V -5.559103 -T 0.101298
n -t 6.700000 -s 2 -x 1913.220247 -y 1246.330019 -U -2.682650 -V -0.198722 -T 0.100739
n -t 6.700000 -s 3 -x 1672.296679 -y 1430.900885 -U -1.716745 -V -0.105766 -T 0.102915
n -t 6.800000 -s 0 -x 1357.454534 -y 1272.350198 -U 13.666917 -V -0.598141 -T 0.100642
n -t 6.800000 -s 1 -x 1296.499870 -y 1336.827214 -U 0.197679 -V -5.766613 -T 0.101830
n -t 6.800000 -s 2 -x 1912.951982 -y 1246.310147 -U -2.703444 -V -0.299653 -T 0.100606
n -t 6.800000 -s 3 -x 1672.125004 -y 1430.890308 -U -1.970356 -V -0.195189 -T 0.104044
n -t 6.900000 -s 0 -x 1358.821226 -y 1272.290384 -U 13.390660 -V -0.500214 -T 0.100725
n -t 6.900000 -s 1 -x 1296.519638 -y 1336.250553 -U 0.201280 -V -5.936589 -T 0.101161
n -t 6.900000 -s 2 -x 1912.681637 -y 1246.280181 -U -2.642716 -V -0.196342 -T 0.102787
n -t 6.900000 -s 3 -x 1671.927969 -y 1430.870789 -U -2.137383 -V -0.105800 -T 0.101979
n -t 7.000000 -s 0 -x 1360.160292 -y 1272.240363 -U 13.080333 -V -0.502982 -T 0.100128
n -t 7.000000 -s 1 -x 1296.539766 -y 1335.656894 -U 0.199641 -V -6.086727 -T 0.101351
n -t 7.000000 -s 2 -x 1912.417366 -y 1246.260547 -U -2.732512 -V -0.202424 -T 0.101506
n -t 7.000000 -s 3 -x 1671.714231 -y 1430.860209 -U -2.311413 -V -0.199429 -T 0.101337
n -t 7.100000 -s 0 -x 1361.468325 -y 1272.190064 -U 12.695846 -V -0.599657 -T 0.100165
n -t 7.100000 -s 1 -x 1296.559730 -y 1335.048221 -U 0.301758 -V -6.262734 -T 0.100311
n -t 7.100000 -s 2 -x 1912.144115 -y 1246.240305 -U -2.732514 -V -0.202409 -T 0.100316
n -t 7.100000 -s 3 -x 1671.483089 -y 1430.840267 -U -2.521927 -V -0.201948 -T 0.100356
n -t 7.200000 -s 0 -x 1362.737910 -y 1272.130099 -U 12.329975 -V -0.497320 -T 0.100737
n -t 7.200000 -s 1 -x 1296.589906 -y 1334.421948 -U 0.198703 -V -6.446939 -T 0.101125
n -t 7.200000 -s 2 -x 1911.870863 -y 1246.220064 -U -2.702596 -V -0.200192 -T 0.100223
n -t 7.200000 -s 3 -x 1671.230897 -y 1430.820072 -U -2.764205 -V -0.295926 -T 0.101619
n -t 7.300000 -s 0 -x 1363.970907 -y 1272.080367 -U 11.973217 -V -0.403071 -T 0.100148
n -t 7.300000 -s 1 -x 1296.609776 -y 1333.777254 -U 0.200854 -V -6.626957 -T 0.100688
n -t 7.300000 -s 2 -x 1911.600604 -y 1246.200045 -U -2.653694 -V -0.294636 -T 0.101972
n -t 7.300000 -s 3 -x 1670.954476 -y 1430.790479 -U -2.912964 -V -0.202581 -T 0.101092
n -t 7.400000 -s 0 -x 1365.168229 -y 1272.040060 -U 11.679347 -V -0.498957 -T 0.100328
n -t 7.400000 -s 1 -x 1296.629862 -y 1333.114558 -U 0.199686 -V -6.887106 -T 0.100849
n -t 7.400000 -s 2 -x 1911.335234 -y 1246.170581 -U -2.642058 -V -0.205013 -T 0.100389
n -t 7.400000 -s 3 -x 1670.663180 -y 1430.770221 -U -3.053641 -V -0.197165 -T 0.102559
n -t 7.500000 -s 0 -x 1366.336164 -y 1271.990164 -U 11.359082 -V -0.498162 -T 0.100698
n -t 7.500000 -s 1 -x 1296.649830 -y 1332.425848 -U 0.300204 -V -7.023587 -T 0.100497
n -t 7.500000 -s 2 -x 1911.071028 -y 1246.150080 -U -2.752982 -V -0.196704 -T 0.102082
n -t 7.500000 -s 3 -x 1670.357816 -y 1430.750505 -U -3.265891 -V -0.303905 -T 0.100376
n -t 7.600000 -s 0 -x 1367.472072 -y 1271.940348 -U 10.992713 -V -0.400324 -T 0.100787
n -t 7.600000 -s 1 -x 1296.679851 -y 1331.723489 -U 0.198535 -V -7.227274 -T 0.101489
n -t 7.600000 -s 2 -x 1910.795730 -y 1246.130409 -U -2.732525 -V -0.202260 -T 0.100907
n -t 7.600000 -s 3 -x 1670.031227 -y 1430.720114 -U -3.527762 -V -0.294097 -T 0.102395
n -t 7.700000 -s 0 -x 1368.571343 -y 1271.900315 -U 10.682401 -V -0.402995 -T 0.100039
n -t 7.700000 -s 1 -x 1296.699704 -y 1331.000762 -U 0.301166 -V -7.363844 -T 0.100594
n -t 7.700000 -s 2 -x 1910.522478 -y 1246.110183 -U -2.764264 -V -0.295368 -T 0.102189
n -t 7.700000 -s 3 -x 1669.678450 -y 1430.690704 -U -3.717784 -V -0.301632 -T 0.101795
n -t 7.800000 -s 0 -x 1369.639583 -y 1271.860016 -U 10.318084 -V -0.496019 -T 0.100834
n -t 7.800000 -s 1 -x 1296.729821 -y 1330.264377 -U 0.200037 -V -7.577360 -T 0.100876
n -t 7.800000 -s 2 -x 1910.246051 -y 1246.080647 -U -2.762285 -V -0.206599 -T 0.099936
n -t 7.800000 -s 3 -x 1669.306672 -y 1430.660541 -U -3.868550 -V -0.297855 -T 0.102538
n -t 7.900000 -s 0 -x 1370.671392 -y 1271.810414 -U 10.021958 -V -0.401569 -T 0.100640
n -t 7.900000 -s 1 -x 1296.749825 -y 1329.506641 -U 0.298602 -V -7.784275 -T 0.101055
n -t 7.900000 -s 2 -x 1909.970000 -y 1246.060000 -U -2.642760 -V -0.195760 -T 0.102166
n -t 7.900000 -s 3 -x 1668.919817 -y 1430.630756 -U -4.068559 -V -0.305336 -T 0.100728
n -t 8.000000 -s 0 -x 1371.673588 -y 1271.770257 -U 9.681775 -V -0.399174 -T 0.100851
n -t 8.000000 -s 1 -x 1296.779685 -y 1328.728214 -U 0.301333 -V -7.934280 -T 0.100603
n -t 8.000000 -s 2 -x 1909.705724 -y 1246.040424 -U -2.712568 -V -0.200931 -T 0.101647
n -t 8.000000 -s 3 -x 1668.512961 -y 1430.600222 -U -4.211002 -V -0.400453 -T 0.100442
n -t 8.000000 -s 4 -x 1349.310000 -y 1457.600000 -U 0.000000 -V 0.000000 -T 0.000000
n -t 8.100000 -s 0 -x 1372.641765 -y 1271.730340 -U 9.455161 -V -0.302525 -T 0.100288
n -t 8.100000 -s 1 -x 1296.809818 -y 1327.934786 -U 0.200097 -V -8.177552 -T 0.100860
n -t 8.100000 -s 2 -x 1909.434467 -y 1246.020331 -U -2.743300 -V -0.303157 -T 0.100050
n -t 8.100000 -s 3 -x 1668.091861 -y 1430.560177 -U -4.420154 -V -0.295194 -T 0.102227
n -t 8.100000 -s 4 -x 1349.310000 -y 1457.600000 -U 0.000000 -V 0.260000 -T 0.115385
n -t 8.200000 -s 0 -x 1373.587281 -y 1271.700087 -U 9.091236 -V -0.399291 -T 0.100395
n -t 8.200000 -s 1 -x 1296.829828 -y 1327.117030 -U 0.298314 -V -8.374689 -T 0.101142
n -t 8.200000 -s 2 -x 1909.160137 -y 1245.990015 -U -2.723059 -V -0.194556 -T 0.102876
n -t 8.200000 -s 3 -x 1667.649845 -y 1430.530658 -U -4.572164 -V -0.404251 -T 0.100575
n -t 8.200000 -s 4 -x 1349.310000 -y 1457.626000 -U 0.000000 -V 0.510000 -T 0.105882
n -t 8.300000 -s 0 -x 1374.496405 -y 1271.660158 -U 8.800915 -V -0.399987 -T 0.100398
n -t 8.300000 -s 1 -x 1296.859659 -y 1326.279562 -U 0.300585 -V -8.614758 -T 0.100939
n -t 8.300000 -s 2 -x 1908.887831 -y 1245.970560 -U -2.672139 -V -0.205121 -T 0.100231
n -t 8.300000 -s 3 -x 1667.192629 -y 1430.490232 -U -4.813305 -V -0.401242 -T 0.100270
n -t 8.300000 -s 4 -x 1349.310000 -y 1457.677000 -U 0.104503 -V 0.762875 -T 0.095691
n -t 8.400000 -s 0 -x 1375.376496 -y 1271.620159 -U 8.544667 -V -0.301933 -T 0.099887
n -t 8.400000 -s 1 -x 1296.889718 -y 1325.418086 -U 0.301594 -V -8.844860 -T 0.100407
n -t 8.400000 -s 2 -x 1908.620617 -y 1245.950047 -U -2.743009 -V -0.195961 -T 0.102303
n -t 8.400000 -s 3 -x 1666.711299 -y 1430.450108 -U -4.954169 -V -0.396377 -T 0.101187
n -t 8.400000 -s 4 -x 1349.320000 -y 1457.750000 -U 0.091441 -V 1.005852 -T 0.109360
n -t 8.500000 -s 0 -x 1376.230000 -y 1271.590000 -U 8.234623 -V -0.297637 -T 0.100794
n -t 8.500000 -s 1 -x 1296.919877 -y 1324.533600 -U 0.299861 -V -8.995003 -T 0.100456
n -t 8.500000 -s 2 -x 1908.346317 -y 1245.930451 -U -2.703632 -V -0.297952 -T 0.102202
n -t 8.500000 -s 3 -x 1666.215882 -y 1430.410471 -U -5.194640 -V -0.399767 -T 0.101235
n -t 8.500000 -s 4 -x 1349.329144 -y 1457.850585 -U 0.105325 -V 1.255590 -T 0.103071
n -t 8.600000 -s 0 -x 1377.053462 -y 1271.560236 -U 7.839749 -V -0.401052 -T 0.100327
n -t 8.600000 -s 1 -x 1296.949863 -y 1323.634100 -U 0.300848 -V -9.225096 -T 0.100172
n -t 8.600000 -s 2 -x 1908.075953 -y 1245.900656 -U -2.652013 -V -0.205977 -T 0.100284
n -t 8.600000 -s 3 -x 1665.696418 -y 1430.370494 -U -5.367133 -V -0.495971 -T 0.101808
n -t 8.600000 -s 4 -x 1349.339677 -y 1457.976144 -U 0.097744 -V 1.456724 -T 0.105618
n -t 8.700000 -s 0 -x 1377.837437 -y 1271.520131 -U 7.624204 -V -0.297355 -T 0.101330
n -t 8.700000 -s 1 -x 1296.979948 -y 1322.711590 -U 0.299236 -V -9.475276 -T 0.100429
n -t 8.700000 -s 2 -x 1907.810752 -y 1245.880058 -U -2.702594 -V -0.200219 -T 0.100182
n -t 8.700000 -s 3 -x 1665.159704 -y 1430.320897 -U -5.635498 -V -0.404550 -T 0.101092
n -t 8.700000 -s 4 -x 1349.349451 -y 1458.121817 -U 0.200113 -V 1.637820 -T 0.102687
n -t 8.800000 -s 0 -x 1378.599857 -y 1271.490396 -U 7.293683 -V -0.303633 -T 0.100106
n -t 8.800000 -s 1 -x 1297.009872 -y 1321.764062 -U 0.397624 -V -9.651813 -T 0.100920
n -t 8.800000 -s 2 -x 1907.540493 -y 1245.860037 -U -2.752985 -V -0.196655 -T 0.101887
n -t 8.800000 -s 3 -x 1664.596155 -y 1430.280442 -U -5.828458 -V -0.501571 -T 0.100568
n -t 8.800000 -s 4 -x 1349.369462 -y 1458.285599 -U 0.103382 -V 1.907200 -T 0.101930
n -t 8.900000 -s 0 -x 1379.329226 -y 1271.460032 -U 7.027210 -V -0.198053 -T 0.101146
n -t 8.900000 -s 1 -x 1297.049634 -y 1320.798881 -U 0.300820 -V -9.895429 -T 0.100944
n -t 8.900000 -s 2 -x 1907.265194 -y 1245.840371 -U -2.712578 -V -0.200797 -T 0.101451
n -t 8.900000 -s 3 -x 1664.013309 -y 1430.230285 -U -5.989233 -V -0.499192 -T 0.100732
n -t 8.900000 -s 4 -x 1349.379800 -y 1458.476319 -U 0.196693 -V 2.080724 -T 0.102696
n -t 9.000000 -s 0 -x 1380.031947 -y 1271.440227 -U 6.743303 -V -0.300610 -T 0.100552
n -t 9.000000 -s 1 -x 1297.079716 -y 1319.809338 -U 0.301120 -V -10.135528 -T 0.100571
n -t 9.000000 -s 2 -x 1906.993936 -y 1245.820291 -U -2.632718 -V -0.302151 -T 0.100252
n -t 9.000000 -s 3 -x 1663.414385 -y 1430.180366 -U -6.199862 -V -0.500107 -T 0.100710
n -t 9.000000 -s 4 -x 1349.399470 -y 1458.684391 -U 0.203131 -V 2.331167 -T 0.101069
n -t 9.100000 -s 0 -x 1380.706277 -y 1271.410166 -U 6.473112 -V -0.298701 -T 0.100991
n -t 9.100000 -s 1 -x 1297.109828 -y 1318.795785 -U 0.399202 -V -10.392336 -T 0.100630
n -t 9.100000 -s 2 -x 1906.730665 -y 1245.790076 -U -2.692603 -V -0.199721 -T 0.100522
n -t 9.100000 -s 3 -x 1662.794399 -y 1430.130355 -U -6.430397 -V -0.502486 -T 0.100211
n -t 9.100000 -s 4 -x 1349.419783 -y 1458.917508 -U 0.201932 -V 2.521929 -T 0.100119
n -t 9.200000 -s 0 -x 1381.353588 -y 1271.380296 -U 6.156664 -V -0.202713 -T 0.100121
n -t 9.200000 -s 1 -x 1297.149748 -y 1317.756552 -U 0.401254 -V -10.532359 -T 0.100315
n -t 9.200000 -s 2 -x 1906.461404 -y 1245.770104 -U -2.743009 -V -0.195967 -T 0.102590
n -t 9.200000 -s 3 -x 1662.151360 -y 1430.080106 -U -6.562952 -V -0.596460 -T 0.100772
n -t 9.200000 -s 4 -x 1349.439976 -y 1459.169701 -U 0.293953 -V 2.744302 -T 0.102139
n -t 9.300000 -s 0 -x 1381.969255 -y 1271.360025 -U 5.457824 -V -2.468249 -T 0.097245
n -t 9.300000 -s 1 -x 1297.189874 -y 1316.703316 -U 0.299113 -V -10.755842 -T 0.100719
n -t 9.300000 -s 2 -x 1906.187103 -y 1245.750507 -U -2.742500 -V -0.202963 -T 0.101040
n -t 9.300000 -s 3 -x 1661.495064 -y 1430.020460 -U -6.771655 -V -0.498785 -T 0.101166
n -t 9.300000 -s 4 -x 1349.469371 -y 1459.444131 -U 0.200524 -V 2.973246 -T 0.102874
n -t 9.400000 -s 0 -x 1382.500000 -y 1271.120000 -U 4.791190 -V -2.994494 -T 0.100184
n -t 9.400000 -s 1 -x 1297.219785 -y 1315.627732 -U 0.399416 -V -10.902686 -T 0.100685
n -t 9.400000 -s 2 -x 1905.912853 -y 1245.730211 -U -2.723357 -V -0.301539 -T 0.100190
n -t 9.400000 -s 3 -x 1660.817899 -y 1429.970582 -U -6.904037 -V -0.599312 -T 0.101086
n -t 9.400000 -s 4 -x 1349.489424 -y 1459.741455 -U 0.304799 -V 3.175405 -T 0.100316
n -t 9.500000 -s 0 -x 1382.979119 -y 1270.820551 -U 4.598591 -V -2.998843 -T 0.100222
n -t 9.500000 -s 1 -x 1297.259727 -y 1314.537463 -U 0.401225 -V -11.132772 -T 0.100376
n -t 9.500000 -s 2 -x 1905.640518 -y 1245.700057 -U -2.702582 -V -0.200381 -T 0.100096
n -t 9.500000 -s 3 -x 1660.127495 -y 1429.910651 -U -7.154484 -V -0.604776 -T 0.100286
n -t 9.500000 -s 4 -x 1349.519904 -y 1460.058996 -U 0.294734 -V 3.437387 -T 0.102114
n -t 9.600000 -s 0 -x 1383.438978 -y 1270.520666 -U 4.412277 -V -2.807973 -T 0.099953
n -t 9.600000 -s 1 -x 1297.299849 -y 1313.424186 -U 0.299758 -V -11.276016 -T 0.100584
n -t 9.600000 -s 2 -x 1905.370259 -y 1245.680019 -U -2.743011 -V -0.195936 -T 0.102172
n -t 9.600000 -s 3 -x 1659.412047 -y 1429.850173 -U -7.375789 -V -0.598107 -T 0.100606
n -t 9.600000 -s 4 -x 1349.549377 -y 1460.402735 -U 0.304950 -V 3.657308 -T 0.100420
n -t 9.700000 -s 0 -x 1383.880000 -y 1270.240000 -U 4.189069 -V -2.692973 -T 0.100261
n -t 9.700000 -s 1 -x 1297.329825 -y 1312.296584 -U 0.400599 -V -11.432984 -T 0.100287
n -t 9.700000 -s 2 -x 1905.095958 -y 1245.660426 -U -2.702607 -V -0.200039 -T 0.102108
n -t 9.700000 -s 3 -x 1658.674468 -y 1429.790362 -U -7.556481 -V -0.596659 -T 0.101167
n -t 9.700000 -s 4 -x 1349.579872 -y 1460.768465 -U 0.296145 -V 3.848623 -T 0.101734
n -t 9.800000 -s 0 -x 1384.298907 -y 1269.970703 -U 3.931566 -V -2.520255 -T 0.099475
n -t 9.800000 -s 1 -x 1297.369885 -y 1311.153286 -U 0.400125 -V -11.603103 -T 0.100256
n -t 9.800000 -s 2 -x 1904.825698 -y 1245.640422 -U -2.663832 -V -0.293939 -T 0.103497
n -t 9.800000 -s 3 -x 1657.918820 -y 1429.730696 -U -7.756480 -V -0.604492 -T 0.100409
n -t 9.800000 -s 4 -x 1349.609487 -y 1461.153328 -U 0.403464 -V 4.049953 -T 0.100414
n -t 9.900000 -s 0 -x 1384.690000 -y 1269.720000 -U 3.725960 -V -2.451290 -T 0.101987
n -t 9.900000 -s 1 -x 1297.409897 -y 1309.992976 -U 0.398094 -V -11.743254 -T 0.100737
n -t 9.900000 -s 2 -x 1904.559315 -y 1245.611028 -U -2.732268 -V -0.205695 -T 0.102228
n -t 9.900000 -s 3 -x 1657.143172 -y 1429.670247 -U -7.989500 -V -0.698779 -T 0.100528
n -t 9.900000 -s 4 -x 1349.649833 -y 1461.558323 -U 0.399316 -V 4.291462 -T 0.100590
n -t 10.000000 -s 0 -x 1385.062596 -y 1269.474871 -U 3.580292 -V -2.252644 -T 0.099825
n -t 10.000000 -s 1 -x 1297.449707 -y 1308.818650 -U 0.400807 -V -11.923265 -T 0.100530
n -t 10.000000 -s 2 -x 1904.286088 -y 1245.590458 -U -2.742481 -V -0.203220 -T 0.100671
n -t 10.000000 -s 3 -x 1656.344222 -y 1429.600369 -U -8.127691 -V -0.602615 -T 0.100179
n -t 10.000000 -s 4 -x 1349.689765 -y 1461.987469 -U 0.296662 -V 4.440100 -T 0.101919
+ -t 10.000000000 -s 0 -d -1 -p tcp -e 40 -c 2 -a 0 -i 0 -k AGT 
- -t 10.000000000 -s 0 -d -1 -p tcp -e 40 -c 2 -a 0 -i 0 -k AGT
h -t 10.000000000 -s 0 -d -1 -p tcp -e 40 -c 2 -a 0 -i 0 -k AGT
+ -t 10.000000000 -s 1 -d -1 -p tcp -e 40 -c 2 -a 0 -i 2 -k AGT 
- -t 10.000000000 -s 1 -d -1 -p tcp -e 40 -c 2 -a 0 -i 2 -k AGT
h -t 10.000000000 -s 1 -d -1 -p tcp -e 40 -c 2 -a 0 -i 2 -k AGT
+ -t 10.000000000 -s 2 -d -1 -p tcp -e 40 -c 2 -a 0 -i 4 -k AGT 
- -t 10.000000000 -s 2 -d -1 -p tcp -e 40 -c 2 -a 0 -i 4 -k AGT
h -t 10.000000000 -s 2 -d -1 -p tcp -e 40 -c 2 -a 0 -i 4 -k AGT
+ -t 10.000000000 -s 3 -d -1 -p tcp -e 40 -c 2 -a 0 -i 6 -k AGT 
- -t 10.000000000 -s 3 -d -1 -p tcp -e 40 -c 2 -a 0 -i 6 -k AGT
h -t 10.000000000 -s 3 -d -1 -p tcp -e 40 -c 2 -a 0 -i 6 -k AGT
+ -t 10.000000000 -s 4 -d -1 -p tcp -e 40 -c 2 -a 0 -i 8 -k AGT 
- -t 10.000000000 -s 4 -d -1 -p tcp -e 40 -c 2 -a 0 -i 8 -k AGT
h -t 10.000000000 -s 4 -d -1 -p tcp -e 40 -c 2 -a 0 -i 8 -k AGT
+ -t 10.000000000 -s 5 -d -1 -p tcp -e 40 -c 2 -a 0 -i 10 -k AGT 
- -t 10.000000000 -s 5 -d -1 -p tcp -e 40 -c 2 -a 0 -i 10 -k AGT
h -t 10.000000000 -s 5 -d -1 -p tcp -e 40 -c 2 -a 0 -i 10 -k AGT
+ -t 10.000000000 -s 6 -d -1 -p tcp -e 40 -c 2 -a 0 -i 12 -k AGT 
- -t 10.000000000 -s 6 -d -1 -p tcp -e 40 -c 2 -a 0 -i 12 -k AGT
h -t 10.000000000 -s 6 -d -1 -p tcp -e 40 -c 2 -a 0 -i 12 -k AGT
+ -t 10.000000000 -s 7 -d -1 -p tcp -e 40 -c 2 -a 0 -i 14 -k AGT 
- -t 10.000000000 -s 7 -d -1 -p tcp -e 40 -c 2 -a 0 -i 14 -k AGT
h -t 10.000000000 -s 7 -d -1 -p tcp -e 40 -c 2 -a 0 -i 14 -k AGT
+ -t 10.000000000 -s 8 -d -1 -p tcp -e 40 -c 2 -a 0 -i 16 -k AGT 
- -t 10.000000000 -s 8 -d -1 -p tcp -e 40 -c 2 -a 0 -i 16 -k AGT
h -t 10.000000000 -s 8 -d -1 -p tcp -e 40 -c 2 -a 0 -i 16 -k AGT
+ -t 10.000000000 -s 9 -d -1 -p tcp -e 40 -c 2 -a 0 -i 18 -k AGT 
- -t 10.000000000 -s 9 -d -1 -p tcp -e 40 -c 2 -a 0 -i 18 -k AGT
h -t 10.000000000 -s 9 -d -1 -p tcp -e 40 -c 2 -a 0 -i 18 -k AGT
+ -t 10.000000000 -s 10 -d -1 -p tcp -e 40 -c 2 -a 0 -i 20 -k AGT 
- -t 10.000000000 -s 10 -d -1 -p tcp -e 40 -c 2 -a 0 -i 20 -k AGT
h -t 10.000000000 -s 10 -d -1 -p tcp -e 40 -c 2 -a 0 -i 20 -k AGT
+ -t 10.000000000 -s 11 -d -1 -p tcp -e 40 -c 2 -a 0 -i 22 -k AGT 
- -t 10.000000000 -s 11 -d -1 -p tcp -e 40 -c 2 -a 0 -i 22 -k AGT
h -t 10.000000000 -s 11 -d -1 -p tcp -e 40 -c 2 -a 0 -i 22 -k AGT
+ -t 10.000000000 -s 12 -d -1 -p tcp -e 40 -c 2 -a 0 -i 24 -k AGT 
- -t 10.000000000 -s 12 -d -1 -p tcp -e 40 -c 2 -a 0 -i 24 -k AGT
h -t 10.000000000 -s 12 -d -1 -p tcp -e 40 -c 2 -a 0 -i 24 -k AGT
+ -t 10.000000000 -s 13 -d -1 -p tcp -e 40 -c 2 -a 0 -i 26 -k AGT 
- -t 10.000000000 -s 13 -d -1 -p tcp -e 40 -c 2 -a 0 -i 26 -k AGT
h -t 10.000000000 -s 13 -d -1 -p tcp -e 40 -c 2 -a 0 -i 26 -k AGT
+ -t 10.000000000 -s 14 -d -1 -p tcp -e 40 -c 2 -a 0 -i 28 -k AGT 
- -t 10.000000000 -s 14 -d -1 -p tcp -e 40 -c 2 -a 0 -i 28 -k AGT
h -t 10.000000000 -s 14 -d -1 -p tcp -e 40 -c 2 -a 0 -i 28 -k AGT
+ -t 10.002519905 -s 2 -d -1 -p DSR -e 32 -c 2 -a 0 -i 5 -k RTR 
- -t 10.002519905 -s 2 -d -1 -p DSR -e 32 -c 2 -a 0 -i 5 -k RTR
h -t 10.002519905 -s 2 -d -1 -p DSR -e 32 -c 2 -a 0 -i 5 -k RTR
+ -t 10.002670478 -s 1 -d -1 -p DSR -e 32 -c 2 -a 0 -i 3 -k RTR 
- -t 10.002670478 -s 1 -d -1 -p DSR -e 32 -c 2 -a 0 -i 3 -k RTR
h -t 10.002670478 -s 1 -d -1 -p DSR -e 32 -c 2 -a 0 -i 3 -k RTR
+ -t 10.002797276 -s 3 -d -1 -p DSR -e 32 -c 2 -a 0 -i 7 -k RTR 
- -t 10.002797276 -s 3 -d -1 -p DSR -e 32 -c 2 -a 0 -i 7 -k RTR
h -t 10.002797276 -s 3 -d -1 -p DSR -e 32 -c 2 -a 0 -i 7 -k RTR
+ -t 10.003575622 -s 10 -d -1 -p DSR -e 32 -c 2 -a 0 -i 21 -k RTR 
- -t 10.003575622 -s 10 -d -1 -p DSR -e 32 -c 2 -a 0 -i 21 -k RTR
h -t 10.003575622 -s 10 -d -1 -p DSR -e 32 -c 2 -a 0 -i 21 -k RTR
+ -t 10.004130822 -s 4 -d -1 -p DSR -e 32 -c 2 -a 0 -i 9 -k RTR 
- -t 10.004130822 -s 4 -d -1 -p DSR -e 32 -c 2 -a 0 -i 9 -k RTR
h -t 10.004130822 -s 4 -d -1 -p DSR -e 32 -c 2 -a 0 -i 9 -k RTR
+ -t 10.006223455 -s 0 -d -1 -p DSR -e 32 -c 2 -a 0 -i 1 -k RTR 
- -t 10.006223455 -s 0 -d -1 -p DSR -e 32 -c 2 -a 0 -i 1 -k RTR
h -t 10.006223455 -s 0 -d -1 -p DSR -e 32 -c 2 -a 0 -i 1 -k RTR
+ -t 10.006356802 -s 14 -d -1 -p DSR -e 32 -c 2 -a 0 -i 29 -k RTR 
- -t 10.006356802 -s 14 -d -1 -p DSR -e 32 -c 2 -a 0 -i 29 -k RTR
h -t 10.006356802 -s 14 -d -1 -p DSR -e 32 -c 2 -a 0 -i 29 -k RTR
+ -t 10.006463646 -s 12 -d -1 -p DSR -e 32 -c 2 -a 0 -i 25 -k RTR 
- -t 10.006463646 -s 12 -d -1 -p DSR -e 32 -c 2 -a 0 -i 25 -k RTR