n -t * -s 0  -x 0 -y 0 -Z 0 -z 20  -v circle -c black
n -t * -s 1  -x 0 -y 0 -Z 0 -z 20  -v circle -c black
n -t * -s 2  -x 0 -y 0 -Z 0 -z 20  -v circle -c black
n -t * -s 3  -x 0 -y 0 -Z 0 -z 20  -v circle -c black
n -t * -s 4  -x 0 -y 0 -Z 0 -z 20  -v circle -c black
n -t * -s 5  -x 0 -y 0 -Z 0 -z 20  -v circle -c black
n -t * -s 6  -x 0 -y 0 -Z 0 -z 20  -v circle -c black
n -t * -s 7  -x 0 -y 0 -Z 0 -z 20  -v circle -c black
n -t * -s 8  -x 0 -y 0 -Z 0 -z 20  -v circle -c black
n -t * -s 9  -x 0 -y 0 -Z 0 -z 20  -v circle -c black
n -t * -s 10  -x 0 -y 0 -Z 0 -z 20  -v circle -c black
n -t * -s 11  -x 0 -y 0 -Z 0 -z 20  -v circle -c black
n -t * -s 12  -x 0 -y 0 -Z 0 -z 20  -v circle -c black
n -t * -s 13  -x 0 -y 0 -Z 0 -z 20  -v circle -c black
n -t * -s 14  -x 0 -y 0 -Z 0 -z 20  -v circle -c black
n -t * -s 15  -x 0 -y 0 -Z 0 -z 20  -v circle -c black
n -t * -s 16  -x 0 -y 0 -Z 0 -z 20  -v circle -c black
n -t * -s 17  -x 0 -y 0 -Z 0 -z 20  -v circle -c black
n -t * -s 18  -x 0 -y 0 -Z 0 -z 20  -v circle -c black
n -t * -s 19  -x 0 -y 0 -Z 0 -z 20  -v circle -c black
n -t * -s 20  -x 0 -y 0 -Z 0 -z 20  -v circle -c black
n -t * -s 21  -x 0 -y 0 -Z 0 -z 20  -v circle -c black
n -t * -s 22  -x 0 -y 0 -Z 0 -z 20  -v circle -c black
n -t * -s 23  -x 0 -y 0 -Z 0 -z 20  -v circle -c black
n -t * -s 24  -x 0 -y 0 -Z 0 -z 20  -v circle -c black
n -t * -s 25  -x 0 -y 0 -Z 0 -z 20  -v circle -c black
n -t * -s 26  -x 0 -y 0 -Z 0 -z 20  -v circle -c black
n -t * -s 27  -x 0 -y 0 -Z 0 -z 20  -v circle -c black
n -t * -s 28  -x 0 -y 0 -Z 0 -z 20  -v circle -c black
n -t * -s 29  -x 0 -y 0 -Z 0 -z 20  -v circle -c black
n -t * -s 30  -x 0 -y 0 -Z 0 -z 20  -v circle -c black
n -t * -s 31  -x 0 -y 0 -Z 0 -z 20  -v circle -c black
n -t * -s 32  -x 0 -y 0 -Z 0 -z 20  -v circle -c black
n -t * -s 33  -x 0 -y 0 -Z 0 -z 20  -v circle -c black
n -t * -s 34  -x 0 -y 0 -Z 0 -z 20  -v circle -c black
n -t * -s 35  -x 0 -y 0 -Z 0 -z 20  -v circle -c black
n -t * -s 36  -x 0 -y 0 -Z 0 -z 20  -v circle -c black
n -t * -s 37  -x 0 -y 0 -Z 0 -z 20  -v circle -c black
n -t * -s 38  -x 0 -y 0 -Z 0 -z 20  -v circle -c black
n -t * -s 39  -x 0 -y 0 -Z 0 -z 20  -v circle -c black
n -t * -s 40  -x 0 -y 0 -Z 0 -z 20  -v circle -c black
V -t * -v 1.0a5 -a 0
W -t * -x 2826 -y 3545
A -t * -n 1 -p 0 -o 0x7fffffff -c 30 -a 1
A -t * -h 1 -m 1073741823 -s 0
n -t 0.000000 -s 0 -x 1661.190000 -y 1569.520000 -U 0.000000 -V 0.000000 -T 0.000000
n -t 0.100000 -s 0 -x 1661.190000 -y 1569.520000 -U 0.079057 -V -0.237171 -T 0.126491
n -t 0.200000 -s 0 -x 1661.197906 -y 1569.496283 -U 0.018220 -V -0.489661 -T 0.114943
n -t 0.300000 -s 0 -x 1661.199728 -y 1569.447317 -U 0.098777 -V -0.743467 -T 0.103995
n -t 0.400000 -s 0 -x 1661.209605 -y 1569.372970 -U 0.098429 -V -0.975045 -T 0.105606
n -t 0.500000 -s 0 -x 1661.219448 -y 1569.275466 -U 0.101404 -V -1.205743 -T 0.104057
n -t 0.600000 -s 0 -x 1661.229589 -y 1569.154891 -U 0.190748 -V -1.447486 -T 0.107007
n -t 0.700000 -s 0 -x 1661.248663 -y 1569.010143 -U 0.110361 -V -1.656327 -T 0.102723
n -t 0.800000 -s 0 -x 1661.259700 -y 1568.844510 -U 0.197227 -V -1.889736 -T 0.102930
n -t 0.900000 -s 0 -x 1661.279422 -y 1568.655536 -U 0.199585 -V -2.090494 -T 0.103103
n -t 1.000000 -s 0 -x 1661.299381 -y 1568.446487 -U 0.304120 -V -2.249536 -T 0.100682
n -t 1.000000 -s 1 -x 1661.230000 -y 1225.880000 -U 0.000000 -V 0.000000 -T 0.000000
n -t 1.100000 -s 0 -x 1661.329793 -y 1568.221533 -U 0.194899 -V -2.522482 -T 0.103681
n -t 1.100000 -s 1 -x 1661.230000 -y 1225.880000 -U 0.000000 -V -0.250000 -T 0.120000
n -t 1.200000 -s 0 -x 1661.349283 -y 1567.969285 -U 0.298462 -V -2.713636 -T 0.102919
n -t 1.200000 -s 1 -x 1661.230000 -y 1225.855000 -U -0.089443 -V -0.491935 -T 0.111803
n -t 1.300000 -s 0 -x 1661.379129 -y 1567.697922 -U 0.299934 -V -2.894502 -T 0.102927
n -t 1.300000 -s 1 -x 1661.221056 -y 1225.805807 -U -0.010444 -V -0.749927 -T 0.101085
n -t 1.400000 -s 0 -x 1661.409122 -y 1567.408471 -U 0.305917 -V -3.155204 -T 0.100935
n -t 1.400000 -s 1 -x 1661.220011 -y 1225.730814 -U -0.000109 -V -0.970000 -T 0.103932
n -t 1.500000 -s 0 -x 1661.439714 -y 1567.092951 -U 0.297332 -V -3.366897 -T 0.101860
n -t 1.500000 -s 1 -x 1661.220000 -y 1225.633814 -U -0.000004 -V -1.180000 -T 0.104927
n -t 1.600000 -s 0 -x 1661.469447 -y 1566.756261 -U 0.400578 -V -3.617891 -T 0.101236
n -t 1.600000 -s 1 -x 1661.220000 -y 1225.515814 -U -0.000000 -V -1.410000 -T 0.103414
n -t 1.700000 -s 0 -x 1661.509505 -y 1566.394472 -U 0.404324 -V -3.838766 -T 0.100155
n -t 1.700000 -s 1 -x 1661.220000 -y 1225.374814 -U -0.000000 -V -1.610000 -T 0.102369
n -t 1.800000 -s 0 -x 1661.549937 -y 1566.010596 -U 0.398046 -V -3.980146 -T 0.100648
n -t 1.800000 -s 1 -x 1661.220000 -y 1225.213814 -U -0.000000 -V -1.800000 -T 0.102119
n -t 1.900000 -s 0 -x 1661.589742 -y 1565.612581 -U 0.402056 -V -4.120431 -T 0.100131
n -t 1.900000 -s 1 -x 1661.220000 -y 1225.033814 -U -0.000000 -V -2.020000 -T 0.100898
n -t 2.000000 -s 0 -x 1661.629948 -y 1565.200538 -U 0.392055 -V -4.312214 -T 0.102161
n -t 2.000000 -s 1 -x 1661.220000 -y 1224.831814 -U -0.096970 -V -2.247909 -T 0.103124
n -t 2.000000 -s 2 -x 1611.460000 -y 1506.910000 -U 0.000000 -V 0.000000 -T 0.000000
n -t 2.100000 -s 0 -x 1661.669153 -y 1564.769317 -U 0.500634 -V -4.522374 -T 0.101565
n -t 2.100000 -s 1 -x 1661.210303 -y 1224.607023 -U -0.002956 -V -2.409998 -T 0.102499
n -t 2.100000 -s 2 -x 1611.460000 -y 1506.910000 -U 0.232551 -V -0.116276 -T 0.086003
n -t 2.200000 -s 0 -x 1661.719216 -y 1564.317079 -U 0.506938 -V -4.662522 -T 0.100177
n -t 2.200000 -s 1 -x 1661.210007 -y 1224.366023 -U -0.000074 -V -2.670000 -T 0.099634
n -t 2.200000 -s 2 -x 1611.480000 -y 1506.900000 -U 0.367696 -V -0.367696 -T 0.108786
n -t 2.300000 -s 0 -x 1661.769910 -y 1563.850827 -U 0.497471 -V -4.874682 -T 0.100689
n -t 2.300000 -s 1 -x 1661.210000 -y 1224.100000 -U 0.000000 -V -2.910000 -T 0.103093
n -t 2.300000 -s 2 -x 1611.516770 -y 1506.863230 -U 0.619129 -V -0.423296 -T 0.102128
n -t 2.400000 -s 0 -x 1661.819657 -y 1563.363359 -U 0.498722 -V -5.085605 -T 0.100944
n -t 2.400000 -s 1 -x 1661.210000 -y 1223.809000 -U 0.000000 -V -3.050000 -T 0.101311
n -t 2.400000 -s 2 -x 1611.578682 -y 1506.820901 -U 0.709176 -V -0.705032 -T 0.100564
n -t 2.500000 -s 0 -x 1661.869529 -y 1562.854798 -U 0.501723 -V -5.316378 -T 0.100594
n -t 2.500000 -s 1 -x 1661.210000 -y 1223.504000 -U -0.098160 -V -3.278531 -T 0.101875
n -t 2.500000 -s 2 -x 1611.649600 -y 1506.750398 -U 0.975718 -V -0.781329 -T 0.102899
n -t 2.600000 -s 0 -x 1661.919702 -y 1562.323160 -U 0.592997 -V -5.538344 -T 0.101684
n -t 2.600000 -s 1 -x 1661.200184 -y 1223.176147 -U -0.001829 -V -3.440000 -T 0.100624
n -t 2.600000 -s 2 -x 1611.747172 -y 1506.672265 -U 1.167345 -V -0.876873 -T 0.105220
n -t 2.700000 -s 0 -x 1661.979001 -y 1561.769326 -U 0.601055 -V -5.708444 -T 0.101486
n -t 2.700000 -s 1 -x 1661.200001 -y 1222.832147 -U -0.000011 -V -3.610000 -T 0.100318
n -t 2.700000 -s 2 -x 1611.863906 -y 1506.584577 -U 1.315780 -V -1.107756 -T 0.103432
n -t 2.800000 -s 0 -x 1662.039107 -y 1561.198482 -U 0.598230 -V -5.879645 -T 0.101789
n -t 2.800000 -s 1 -x 1661.200000 -y 1222.471147 -U -0.098091 -V -3.738713 -T 0.101946
n -t 2.800000 -s 2 -x 1611.995484 -y 1506.473802 -U 1.498373 -V -1.200533 -T 0.103122
n -t 2.900000 -s 0 -x 1662.098930 -y 1560.610517 -U 0.600402 -V -6.100526 -T 0.101715
n -t 2.900000 -s 1 -x 1661.190191 -y 1222.097276 -U -0.001893 -V -3.940000 -T 0.100831
n -t 2.900000 -s 2 -x 1612.145321 -y 1506.353749 -U 1.559452 -V -1.361252 -T 0.105600
n -t 3.000000 -s 0 -x 1662.158970 -y 1560.000465 -U 0.604260 -V -6.341275 -T 0.100999
n -t 3.000000 -s 1 -x 1661.190002 -y 1221.703276 -U -0.000016 -V -4.080000 -T 0.101293
n -t 3.000000 -s 2 -x 1612.301267 -y 1506.217623 -U 1.780132 -V -1.392383 -T 0.106022
n -t 3.100000 -s 0 -x 1662.219396 -y 1559.366337 -U 0.599864 -V -6.100579 -T 0.101029
n -t 3.100000 -s 1 -x 1661.190000 -y 1221.295276 -U -0.099221 -V -4.318860 -T 0.100785
n -t 3.100000 -s 2 -x 1612.479280 -y 1506.078385 -U 1.915295 -V -1.606750 -T 0.104799
n -t 3.200000 -s 0 -x 1662.279383 -y 1558.756279 -U 0.597727 -V -5.879696 -T 0.101413
n -t 3.200000 -s 1 -x 1661.180078 -y 1220.863390 -U -0.000775 -V -4.510000 -T 0.100530
n -t 3.200000 -s 2 -x 1612.670809 -y 1505.917710 -U 2.135252 -V -1.748799 -T 0.107337
n -t 3.300000 -s 0 -x 1662.339155 -y 1558.168310 -U 0.604660 -V -5.647724 -T 0.100626
n -t 3.300000 -s 1 -x 1661.180000 -y 1220.412390 -U -0.000004 -V -4.740000 -T 0.101770
n -t 3.300000 -s 2 -x 1612.884335 -y 1505.742830 -U 2.281192 -V -1.790576 -T 0.107692
n -t 3.400000 -s 0 -x 1662.399621 -y 1557.603537 -U 0.497449 -V -5.366996 -T 0.101274
n -t 3.400000 -s 1 -x 1661.180000 -y 1219.938390 -U -0.099501 -V -4.959002 -T 0.100502
n -t 3.400000 -s 2 -x 1613.112454 -y 1505.563773 -U 2.293253 -V -1.980376 -T 0.107945
n -t 3.500000 -s 0 -x 1662.449366 -y 1557.066838 -U 0.594241 -V -5.065262 -T 0.102036
n -t 3.500000 -s 1 -x 1661.170050 -y 1219.442489 -U -0.000496 -V -5.190000 -T 0.100672
n -t 3.500000 -s 2 -x 1613.341779 -y 1505.365735 -U 2.547085 -V -2.066581 -T 0.109231
n -t 3.600000 -s 0 -x 1662.508790 -y 1556.560311 -U 0.500972 -V -4.894428 -T 0.102221
n -t 3.600000 -s 1 -x 1661.170000 -y 1218.923489 -U -0.098273 -V -5.439112 -T 0.101761
n -t 3.600000 -s 2 -x 1613.596488 -y 1505.159077 -U 2.721444 -V -2.216718 -T 0.107852
n -t 3.700000 -s 0 -x 1662.558888 -y 1556.070869 -U 0.403592 -V -4.622414 -T 0.101866
n -t 3.700000 -s 1 -x 1661.160173 -y 1218.379578 -U -0.001720 -V -5.660000 -T 0.100632
n -t 3.700000 -s 2 -x 1613.868632 -y 1504.937405 -U 2.836298 -V -2.344741 -T 0.109780
n -t 3.800000 -s 0 -x 1662.599247 -y 1555.608627 -U 0.501149 -V -4.331103 -T 0.101274
n -t 3.800000 -s 1 -x 1661.160001 -y 1217.813578 -U -0.098888 -V -5.869167 -T 0.101135
n -t 3.800000 -s 2 -x 1614.152262 -y 1504.702931 -U 3.041123 -V -2.457574 -T 0.111057
n -t 3.900000 -s 0 -x 1662.649362 -y 1555.175517 -U 0.396446 -V -4.151112 -T 0.102507
n -t 3.900000 -s 1 -x 1661.150112 -y 1217.226662 -U -0.001103 -V -6.060000 -T 0.101759
n -t 3.900000 -s 2 -x 1614.456374 -y 1504.457173 -U 3.174954 -V -2.578326 -T 0.111380
n -t 4.000000 -s 0 -x 1662.689006 -y 1554.760406 -U 0.399245 -V -3.899616 -T 0.102678
n -t 4.000000 -s 1 -x 1661.150002 -y 1216.620662 -U -0.099426 -V -6.269212 -T 0.100597
n -t 4.000000 -s 2 -x 1614.773870 -y 1504.199341 -U 3.282547 -V -2.683745 -T 0.111538
n -t 4.100000 -s 0 -x 1662.728931 -y 1554.370444 -U 0.305056 -V -3.637230 -T 0.101848
n -t 4.100000 -s 1 -x 1661.140059 -y 1215.993740 -U -0.000592 -V -6.520000 -T 0.100267
n -t 4.100000 -s 2 -x 1615.102124 -y 1503.930966 -U 3.436107 -V -2.843372 -T 0.112882
n -t 4.200000 -s 0 -x 1662.759436 -y 1554.006721 -U 0.402225 -V -3.537204 -T 0.100848
n -t 4.200000 -s 1 -x 1661.140000 -y 1215.341740 -U -0.099285 -V -6.669261 -T 0.100722
n -t 4.200000 -s 2 -x 1615.445735 -y 1503.646629 -U 3.288693 -V 3.329700 -T 0.709785
n -t 4.300000 -s 0 -x 1662.799659 -y 1553.653001 -U 0.293993 -V -3.226634 -T 0.103204
n -t 4.300000 -s 1 -x 1661.130072 -y 1214.674814 -U -0.198377 -V -6.867135 -T 0.101180
n -t 4.300000 -s 2 -x 1615.774604 -y 1503.979599 -U 3.936093 -V 2.850750 -T 0.603491
n -t 4.400000 -s 0 -x 1662.829058 -y 1553.330337 -U 0.406260 -V -3.476342 -T 0.100778
n -t 4.400000 -s 1 -x 1661.110234 -y 1213.988101 -U -0.201943 -V -7.067115 -T 0.100197
n -t 4.400000 -s 2 -x 1616.168214 -y 1504.264674 -U 4.578984 -V 2.153255 -T 0.517972
n -t 4.500000 -s 0 -x 1662.869684 -y 1552.982703 -U 0.393918 -V -3.739309 -T 0.102346
n -t 4.500000 -s 1 -x 1661.090040 -y 1213.281389 -U -0.299559 -V -7.193766 -T 0.100280
n -t 4.500000 -s 2 -x 1616.626112 -y 1504.479999 -U 5.053656 -V 1.266752 -T 0.457864
n -t 4.600000 -s 0 -x 1662.909076 -y 1552.608772 -U 0.400459 -V -4.000004 -T 0.102193
n -t 4.600000 -s 1 -x 1661.060084 -y 1212.562013 -U -0.198093 -V -7.417355 -T 0.101386
n -t 4.600000 -s 2 -x 1617.131478 -y 1504.606675 -U 5.422930 -V 0.277011 -T 0.409100
n -t 4.700000 -s 0 -x 1662.949122 -y 1552.208772 -U 0.397027 -V -4.261545 -T 0.102961
n -t 4.700000 -s 1 -x 1661.040274 -y 1211.820277 -U -0.299260 -V -7.614121 -T 0.101164
n -t 4.700000 -s 2 -x 1617.673771 -y 1504.634376 -U 5.556399 -V -0.697444 -T 0.379064
n -t 4.800000 -s 0 -x 1662.988825 -y 1551.782617 -U 0.499177 -V -4.512474 -T 0.102520
n -t 4.800000 -s 1 -x 1661.010348 -y 1211.058865 -U -0.202162 -V -7.837393 -T 0.100654
n -t 4.800000 -s 2 -x 1618.229411 -y 1504.564631 -U 5.558280 -V -1.548685 -T 0.358130
n -t 4.900000 -s 0 -x 1663.038742 -y 1551.331370 -U 0.401618 -V -4.783169 -T 0.102729
n -t 4.900000 -s 1 -x 1660.990132 -y 1210.275126 -U -0.299568 -V -8.004396 -T 0.100585
n -t 4.900000 -s 2 -x 1618.785239 -y 1504.409763 -U 5.493030 -V -2.260580 -T 0.344939
n -t 5.000000 -s 0 -x 1663.078904 -y 1550.853053 -U 0.598333 -V -5.024500 -T 0.102110
n -t 5.000000 -s 1 -x 1660.960175 -y 1209.474686 -U -0.300570 -V -8.214503 -T 0.100394
n -t 5.000000 -s 2 -x 1619.334542 -y 1504.183705 -U 5.495749 -V -2.826508 -T 0.330339
n -t 5.100000 -s 0 -x 1663.138737 -y 1550.350603 -U 0.502216 -V -5.296242 -T 0.102073
n -t 5.100000 -s 1 -x 1660.930118 -y 1208.653236 -U -0.198715 -V -8.427658 -T 0.101242
n -t 5.100000 -s 2 -x 1619.884116 -y 1503.901054 -U 5.474208 -V -3.276805 -T 0.320756
n -t 5.200000 -s 0 -x 1663.188959 -y 1549.820979 -U 0.603607 -V -5.547257 -T 0.101127
n -t 5.200000 -s 1 -x 1660.910247 -y 1207.810470 -U -0.301414 -V -8.574704 -T 0.100350
n -t 5.200000 -s 2 -x 1620.431537 -y 1503.573374 -U 5.443453 -V -3.642982 -T 0.313856
n -t 5.300000 -s 0 -x 1663.249320 -y 1549.266253 -U 0.396654 -V -5.716255 -T 0.102559
n -t 5.300000 -s 1 -x 1660.880105 -y 1206.953000 -U -0.198904 -V -8.537683 -T 0.101081
n -t 5.300000 -s 2 -x 1620.975882 -y 1503.209075 -U 5.531249 -V -3.938196 -T 0.304473
n -t 5.400000 -s 0 -x 1663.288985 -y 1548.694628 -U 0.406682 -V -5.895991 -T 0.100853
n -t 5.400000 -s 1 -x 1660.860215 -y 1206.099231 -U -0.200328 -V -8.217559 -T 0.100910
n -t 5.400000 -s 2 -x 1621.529007 -y 1502.815256 -U 5.568786 -V -4.174951 -T 0.298268
n -t 5.500000 -s 0 -x 1663.329653 -y 1548.105029 -U 0.496056 -V -6.059730 -T 0.101494
n -t 5.500000 -s 1 -x 1660.840182 -y 1205.277475 -U -0.101243 -V -7.929354 -T 0.100573
n -t 5.500000 -s 2 -x 1622.085886 -y 1502.397761 -U 5.690035 -V -4.395406 -T 0.290704
n -t 5.600000 -s 0 -x 1663.379259 -y 1547.499056 -U 0.402735 -V -6.317175 -T 0.101162
n -t 5.600000 -s 1 -x 1660.830058 -y 1204.484540 -U -0.199582 -V -7.607382 -T 0.100500
n -t 5.600000 -s 2 -x 1622.654890 -y 1501.958220 -U 5.798950 -V -4.548526 -T 0.285416
n -t 5.700000 -s 0 -x 1663.419532 -y 1546.867338 -U 0.496049 -V -6.460986 -T 0.101740
n -t 5.700000 -s 1 -x 1660.810100 -y 1203.723802 -U -0.100602 -V -7.309308 -T 0.100393
n -t 5.700000 -s 2 -x 1623.234784 -y 1501.503367 -U 5.877018 -V -4.691595 -T 0.279941
n -t 5.800000 -s 0 -x 1663.469137 -y 1546.221240 -U 0.501827 -V -6.721292 -T 0.101355
n -t 5.800000 -s 1 -x 1660.800040 -y 1202.992871 -U -0.099136 -V -7.039302 -T 0.101270
n -t 5.800000 -s 2 -x 1623.822486 -y 1501.034208 -U 5.970484 -V -4.798845 -T 0.275943
n -t 5.900000 -s 0 -x 1663.519320 -y 1545.549110 -U 0.501781 -V -6.921836 -T 0.101001
n -t 5.900000 -s 1 -x 1660.790126 -y 1202.288941 -U -0.198818 -V -6.707054 -T 0.101228
n -t 5.900000 -s 2 -x 1624.419535 -y 1500.554323 -U 6.043321 -V -4.915523 -T 0.271451
n -t 6.000000 -s 0 -x 1663.569498 -y 1544.856927 -U 0.502419 -V -7.132326 -T 0.100518
n -t 6.000000 -s 1 -x 1660.770244 -y 1201.618235 -U -0.101614 -V -6.529209 -T 0.100814
n -t 6.000000 -s 2 -x 1625.023867 -y 1500.062771 -U 6.144912 -V -5.012480 -T 0.267886
n -t 6.100000 -s 0 -x 1663.619740 -y 1544.143694 -U 0.595227 -V -7.345924 -T 0.101239
n -t 6.100000 -s 1 -x 1660.760083 -y 1200.965315 -U -0.100280 -V -6.219192 -T 0.100546
n -t 6.100000 -s 2 -x 1625.638358 -y 1499.561523 -U 6.628712 -V -4.637701 -T 0.261234
n -t 6.200000 -s 0 -x 1663.679263 -y 1543.409102 -U 0.598978 -V -7.486075 -T 0.101402
n -t 6.200000 -s 1 -x 1660.750055 -y 1200.343395 -U -0.098635 -V -5.919178 -T 0.101939
n -t 6.200000 -s 2 -x 1626.301229 -y 1499.097753 -U 7.271828 -V -4.104025 -T 0.252862
n -t 6.300000 -s 0 -x 1663.739160 -y 1542.660494 -U 0.602184 -V -7.626262 -T 0.101032
n -t 6.300000 -s 1 -x 1660.740191 -y 1199.751478 -U -0.101276 -V -5.679097 -T 0.100628
n -t 6.300000 -s 2 -x 1627.028412 -y 1498.687350 -U 7.762449 -V -3.725116 -T 0.246261
n -t 6.400000 -s 0 -x 1663.799379 -y 1541.897868 -U 0.606037 -V -7.776421 -T 0.100029
n -t 6.400000 -s 1 -x 1660.730064 -y 1199.183568 -U -0.099426 -V -5.469096 -T 0.101217
n -t 6.400000 -s 2 -x 1627.804657 -y 1498.314839 -U 8.072291 -V -3.529053 -T 0.242229
n -t 6.500000 -s 0 -x 1663.859982 -y 1541.120226 -U 0.600553 -V -7.907227 -T 0.099937
n -t 6.500000 -s 1 -x 1660.720121 -y 1198.636658 -U -0.099528 -V -5.179044 -T 0.101690
n -t 6.500000 -s 2 -x 1628.611886 -y 1497.961934 -U 8.298174 -V -3.406056 -T 0.238379
n -t 6.600000 -s 0 -x 1663.920000 -y 1540.330000 -U 0.597622 -V -8.067896 -T 0.100398
n -t 6.600000 -s 1 -x 1660.710168 -y 1198.118754 -U -0.099062 -V -4.858990 -T 0.102646
n -t 6.600000 -s 2 -x 1629.441703 -y 1497.621328 -U 8.531073 -V -3.335624 -T 0.234237
n -t 6.700000 -s 0 -x 1663.979762 -y 1539.523210 -U 1.199567 -V -8.212858 -T 0.100234
n -t 6.700000 -s 1 -x 1660.700262 -y 1197.632855 -U -0.100458 -V -4.628910 -T 0.102153
n -t 6.700000 -s 2 -x 1630.294811 -y 1497.287766 -U 8.746698 -V -3.332399 -T 0.230394
n -t 6.800000 -s 0 -x 1664.099719 -y 1538.701925 -U 1.301366 -V -8.409908 -T 0.100111
n -t 6.800000 -s 1 -x 1660.690216 -y 1197.169964 -U -0.099703 -V -4.488893 -T 0.102467
n -t 6.800000 -s 2 -x 1631.169480 -y 1496.954526 -U 8.984270 -V -3.382733 -T 0.226008
n -t 6.900000 -s 0 -x 1664.229856 -y 1537.860934 -U 1.301871 -V -8.612156 -T 0.099967
n -t 6.900000 -s 1 -x 1660.680246 -y 1196.721075 -U -0.099324 -V -4.178820 -T 0.103157
n -t 6.900000 -s 2 -x 1632.067908 -y 1496.616252 -U 9.184697 -V -3.446365 -T 0.222336
n -t 7.000000 -s 0 -x 1664.360000 -y 1537.000000 -U 1.293577 -V -8.856024 -T 0.100497
n -t 7.000000 -s 1 -x 1660.670314 -y 1196.303193 -U -0.003072 -V -3.949999 -T 0.102074
n -t 7.000000 -s 2 -x 1632.986377 -y 1496.271616 -U 9.404106 -V -3.487649 -T 0.218375
n -t 7.000000 -s 3 -x 1413.560000 -y 1512.810000 -U 0.000000 -V 0.000000 -T 0.000000
n -t 7.100000 -s 0 -x 1664.489358 -y 1536.114398 -U 1.399865 -V -9.001804 -T 0.100468
n -t 7.100000 -s 1 -x 1660.670006 -y 1195.908193 -U -0.098435 -V -3.818732 -T 0.101655
n -t 7.100000 -s 2 -x 1633.926788 -y 1495.922851 -U 9.576381 -V -3.540766 -T 0.215448
n -t 7.100000 -s 3 -x 1413.560000 -y 1512.810000 -U 0.000000 -V 0.260000 -T 0.115385
n -t 7.200000 -s 0 -x 1664.629344 -y 1535.214217 -U 1.405266 -V -9.233679 -T 0.100092
n -t 7.200000 -s 1 -x 1660.660163 -y 1195.526320 -U -0.099837 -V -3.598615 -T 0.101795
n -t 7.200000 -s 2 -x 1634.884426 -y 1495.568774 -U 9.808786 -V -3.633088 -T 0.211604
n -t 7.200000 -s 3 -x 1413.560000 -y 1512.836000 -U 0.000000 -V 0.510000 -T 0.105882
n -t 7.300000 -s 0 -x 1664.769871 -y 1534.290849 -U 3.201159 -V -9.008117 -T 0.100004
n -t 7.300000 -s 1 -x 1660.650179 -y 1195.166458 -U -0.001743 -V -3.370000 -T 0.102807
n -t 7.300000 -s 2 -x 1635.865304 -y 1495.205466 -U 9.929088 -V -3.711227 -T 0.208951
n -t 7.300000 -s 3 -x 1413.560000 -y 1512.887000 -U 0.100432 -V 0.733153 -T 0.099570
n -t 7.400000 -s 0 -x 1665.089987 -y 1533.390038 -U 3.185316 -V -9.257314 -T 0.100465
n -t 7.400000 -s 1 -x 1660.650005 -y 1194.829458 -U -0.098264 -V -3.628670 -T 0.101816
n -t 7.400000 -s 2 -x 1636.858213 -y 1494.834343 -U 10.122434 -V -3.765148 -T 0.205661
n -t 7.400000 -s 3 -x 1413.570000 -y 1512.960000 -U 0.000000 -V 0.950000 -T 0.105263
n -t 7.500000 -s 0 -x 1665.408518 -y 1532.464306 -U 3.305553 -V -9.416672 -T 0.100280
n -t 7.500000 -s 1 -x 1660.640178 -y 1194.466591 -U -0.099804 -V -3.888719 -T 0.101985
n -t 7.500000 -s 2 -x 1637.870457 -y 1494.457828 -U 10.343017 -V -3.831828 -T 0.202991
n -t 7.500000 -s 3 -x 1413.570000 -y 1513.055000 -U 0.101357 -V 1.165601 -T 0.098662
n -t 7.600000 -s 0 -x 1665.739074 -y 1531.522639 -U 3.302982 -V -9.608117 -T 0.100190
n -t 7.600000 -s 1 -x 1660.630198 -y 1194.077719 -U -0.098920 -V -4.148821 -T 0.103094
n -t 7.600000 -s 2 -x 1638.904758 -y 1494.074645 -U 10.548552 -V -3.881448 -T 0.199576
n -t 7.600000 -s 3 -x 1413.580000 -y 1513.170000 -U 0.101171 -V 1.416391 -T 0.098843
n -t 7.700000 -s 0 -x 1666.069372 -y 1530.561827 -U 4.541083 -V -9.289465 -T 0.099234
n -t 7.700000 -s 1 -x 1660.620306 -y 1193.662837 -U -0.002981 -V -4.409999 -T 0.102684
n -t 7.700000 -s 2 -x 1639.959614 -y 1493.686500 -U 10.682276 -V -3.981079 -T 0.197560
n -t 7.700000 -s 3 -x 1413.590000 -y 1513.310000 -U 0.098066 -V 1.667118 -T 0.101972
n -t 7.800000 -s 0 -x 1666.520000 -y 1529.640000 -U 5.210886 -V -9.219260 -T 0.099791
n -t 7.800000 -s 1 -x 1660.620008 -y 1193.221837 -U 0.912203 -V -4.580042 -T 0.098653
n -t 7.800000 -s 2 -x 1641.027841 -y 1493.288393 -U 10.884398 -V -4.011220 -T 0.194054
n -t 7.800000 -s 3 -x 1413.599807 -y 1513.476712 -U 0.099008 -V 1.877391 -T 0.102956
n -t 7.900000 -s 0 -x 1667.040000 -y 1528.720000 -U 5.279765 -V -9.364111 -T 0.100383
n -t 7.900000 -s 1 -x 1660.710000 -y 1192.770000 -U 2.640222 -V -4.163427 -T 0.098477
n -t 7.900000 -s 2 -x 1642.116281 -y 1492.887271 -U 11.064234 -V -4.101553 -T 0.191945
n -t 7.900000 -s 3 -x 1413.609707 -y 1513.664451 -U 0.201405 -V 2.040082 -T 0.100755
n -t 8.000000 -s 0 -x 1667.567976 -y 1527.783589 -U 5.490953 -V -9.485306 -T 0.100533
n -t 8.000000 -s 1 -x 1660.970000 -y 1192.360000 -U 2.856126 -V -4.333433 -T 0.101536
n -t 8.000000 -s 2 -x 1643.222704 -y 1492.477115 -U 11.298182 -V -4.160852 -T 0.189172
n -t 8.000000 -s 3 -x 1413.629848 -y 1513.868459 -U 0.100709 -V 2.197694 -T 0.100806
n -t 8.000000 -s 4 -x 1308.540000 -y 1380.030000 -U 0.000000 -V 0.000000 -T 0.000000
n -t 8.100000 -s 0 -x 1668.117072 -y 1526.835058 -U 5.495132 -V -9.690362 -T 0.100621
n -t 8.100000 -s 1 -x 1661.255613 -y 1191.926657 -U 3.893723 -V -3.813322 -T 0.096152
n -t 8.100000 -s 2 -x 1644.352522 -y 1492.061030 -U 11.469765 -V -4.244690 -T 0.186358
n -t 8.100000 -s 3 -x 1413.639919 -y 1514.088229 -U 0.098422 -V 2.458030 -T 0.102428
n -t 8.100000 -s 4 -x 1308.540000 -y 1380.030000 -U 0.223607 -V -0.111803 -T 0.089443
n -t 8.200000 -s 0 -x 1668.666585 -y 1525.866022 -U 5.602972 -V -9.905105 -T 0.100556
n -t 8.200000 -s 1 -x 1661.630000 -y 1191.560000 -U 5.046429 -V -2.671639 -T 0.101062
n -t 8.200000 -s 2 -x 1645.499499 -y 1491.636561 -U 11.593265 -V -4.314291 -T 0.184633
n -t 8.200000 -s 3 -x 1413.649761 -y 1514.334032 -U 0.197278 -V 2.592505 -T 0.102591
n -t 8.200000 -s 4 -x 1308.560000 -y 1380.020000 -U 0.510000 -V 0.000000 -T 0.098039
n -t 8.300000 -s 0 -x 1669.226882 -y 1524.875512 -U 5.701326 -V -10.102222 -T 0.100524
n -t 8.300000 -s 1 -x 1662.134643 -y 1191.292836 -U 5.670693 -V 1.664736 -T 0.094408
n -t 8.300000 -s 2 -x 1646.658825 -y 1491.205132 -U 11.818494 -V -4.368433 -T 0.182018
n -t 8.300000 -s 3 -x 1413.669489 -y 1514.593282 -U 0.200509 -V 2.802837 -T 0.102296
n -t 8.300000 -s 4 -x 1308.610000 -y 1380.020000 -U 0.754131 -V -0.094266 -T 0.106082
n -t 8.400000 -s 0 -x 1669.797015 -y 1523.865289 -U 5.874749 -V -10.256691 -T 0.100938
n -t 8.400000 -s 1 -x 1662.670000 -y 1191.450000 -U 5.036335 -V 3.494600 -T 0.097293
n -t 8.400000 -s 2 -x 1647.840675 -y 1490.768289 -U 11.970979 -V -4.446185 -T 0.179545
n -t 8.400000 -s 3 -x 1413.689540 -y 1514.873566 -U 0.204507 -V 2.962951 -T 0.100047
n -t 8.400000 -s 4 -x 1308.685413 -y 1380.010573 -U 0.951761 -V -0.187221 -T 0.109888
n -t 8.500000 -s 0 -x 1670.384490 -y 1522.839620 -U 5.926545 -V -10.445868 -T 0.100482
n -t 8.500000 -s 1 -x 1663.160000 -y 1191.790000 -U 3.698837 -V 5.198366 -T 0.100031
n -t 8.500000 -s 2 -x 1649.037773 -y 1490.323670 -U 12.204250 -V -4.536152 -T 0.177170
n -t 8.500000 -s 3 -x 1413.709990 -y 1515.169861 -U 0.199620 -V 3.193768 -T 0.100239
n -t 8.500000 -s 4 -x 1308.780589 -y 1379.991851 -U 1.214916 -V -0.111260 -T 0.106518
n -t 8.600000 -s 0 -x 1670.977144 -y 1521.795033 -U 5.986832 -V -10.675928 -T 0.100697
n -t 8.600000 -s 1 -x 1663.529884 -y 1192.309837 -U 3.736209 -V 5.452783 -T 0.099062
n -t 8.600000 -s 2 -x 1650.258198 -y 1489.870055 -U 12.461351 -V -4.590549 -T 0.174283
n -t 8.600000 -s 3 -x 1413.729952 -y 1515.489238 -U 0.196159 -V 3.334235 -T 0.102201
n -t 8.600000 -s 4 -x 1308.902081 -y 1379.980725 -U 1.445877 -V -0.202584 -T 0.102304
n -t 8.700000 -s 0 -x 1671.575827 -y 1520.727441 -U 6.187756 -V -10.780379 -T 0.100872
n -t 8.700000 -s 1 -x 1663.900000 -y 1192.850000 -U 0.199914 -V 6.797061 -T 0.100043
n -t 8.700000 -s 2 -x 1651.504333 -y 1489.411000 -U 12.684915 -V -4.706785 -T 0.172304
n -t 8.700000 -s 3 -x 1413.749568 -y 1515.822661 -U 0.199795 -V 3.494293 -T 0.102264
n -t 8.700000 -s 4 -x 1309.046668 -y 1379.960467 -U 1.658478 -V -0.195831 -T 0.104512
n -t 8.800000 -s 0 -x 1672.194603 -y 1519.649403 -U 6.225119 -V -10.943308 -T 0.100463
n -t 8.800000 -s 1 -x 1663.919991 -y 1193.529706 -U 0.200206 -V 7.007140 -T 0.099940
n -t 8.800000 -s 2 -x 1652.772824 -y 1488.940321 -U 12.874799 -V -4.769953 -T 0.169880
n -t 8.800000 -s 3 -x 1413.769548 -y 1516.172090 -U 0.203147 -V 3.654358 -T 0.100677
n -t 8.800000 -s 4 -x 1309.212516 -y 1379.940884 -U 1.868444 -V -0.208125 -T 0.100342
n -t 8.900000 -s 0 -x 1672.817115 -y 1518.555072 -U 6.323136 -V -11.140649 -T 0.100090
n -t 8.900000 -s 1 -x 1663.940000 -y 1194.230000 -U 0.100546 -V 7.239302 -T 0.099457
n -t 8.900000 -s 2 -x 1654.060304 -y 1488.463326 -U 13.084259 -V -4.837837 -T 0.168118
n -t 8.900000 -s 3 -x 1413.789862 -y 1516.537526 -U 0.299286 -V 3.798227 -T 0.100698
n -t 8.900000 -s 4 -x 1309.399361 -y 1379.920071 -U 2.110489 -V -0.287641 -T 0.104544
n -t 9.000000 -s 0 -x 1673.449428 -y 1517.441007 -U 5.711776 -V -11.722509 -T 0.099894
n -t 9.000000 -s 1 -x 1663.950000 -y 1194.950000 -U 0.099856 -V 7.389325 -T 0.100144
n -t 9.000000 -s 2 -x 1655.368730 -y 1487.979542 -U 13.462495 -V -4.421552 -T 0.164997
n -t 9.000000 -s 3 -x 1413.819791 -y 1516.917349 -U 0.199503 -V 3.974997 -T 0.101296
n -t 9.000000 -s 4 -x 1309.610410 -y 1379.891307 -U 2.249185 -V -0.306700 -T 0.102077
n -t 9.000000 -s 5 -x 1638.780000 -y 1407.390000 -U 0.000000 -V 0.000000 -T 0.000000
n -t 9.100000 -s 0 -x 1674.020000 -y 1516.270000 -U 4.765122 -V -12.309899 -T 0.100732
n -t 9.100000 -s 1 -x 1663.959986 -y 1195.688933 -U 0.199794 -V 7.597373 -T 0.100175
n -t 9.100000 -s 2 -x 1656.714980 -y 1487.537387 -U 14.050620 -V -3.242911 -T 0.162628
n -t 9.100000 -s 3 -x 1413.839741 -y 1517.314849 -U 0.299494 -V 4.109100 -T 0.101032
n -t 9.100000 -s 4 -x 1309.835328 -y 1379.860637 -U 2.511889 -V -0.302181 -T 0.101387
n -t 9.100000 -s 5 -x 1638.780000 -y 1407.390000 -U 0.079057 -V -0.237171 -T 0.126491
n -t 9.200000 -s 0 -x 1674.496512 -y 1515.039010 -U 4.822881 -V -12.459110 -T 0.100249
n -t 9.200000 -s 1 -x 1663.979965 -y 1196.448670 -U 0.099914 -V 7.779358 -T 0.100436
n -t 9.200000 -s 2 -x 1658.120042 -y 1487.213096 -U 14.316734 -V -2.758176 -T 0.160648
n -t 9.200000 -s 3 -x 1413.869691 -y 1517.725759 -U 0.200421 -V 4.285316 -T 0.101332
n -t 9.200000 -s 4 -x 1310.086517 -y 1379.830419 -U 2.752166 -V -0.392404 -T 0.103004
n -t 9.200000 -s 5 -x 1638.787906 -y 1407.366283 -U 0.102943 -V -0.479064 -T 0.117485
n -t 9.300000 -s 0 -x 1674.978800 -y 1513.793099 -U 4.790765 -V -12.674820 -T 0.100443
n -t 9.300000 -s 1 -x 1663.989956 -y 1197.226606 -U 0.201030 -V 7.957461 -T 0.099704
n -t 9.300000 -s 2 -x 1659.551715 -y 1486.937279 -U 14.566913 -V -2.559129 -T 0.159147
n -t 9.300000 -s 3 -x 1413.889733 -y 1518.154290 -U 0.299546 -V 4.510063 -T 0.101043
n -t 9.300000 -s 4 -x 1310.361734 -y 1379.791179 -U 2.914122 -V -0.304621 -T 0.102352
n -t 9.300000 -s 5 -x 1638.798200 -y 1407.318376 -U 0.195619 -V -0.703302 -T 0.111441
n -t 9.400000 -s 0 -x 1675.457877 -y 1512.525617 -U 4.911977 -V -12.831995 -T 0.100188
n -t 9.400000 -s 1 -x 1664.010000 -y 1198.020000 -U 0.099749 -V 8.179392 -T 0.100252
n -t 9.400000 -s 2 -x 1661.008406 -y 1486.681366 -U 14.800445 -V -2.558755 -T 0.156860
n -t 9.400000 -s 3 -x 1413.919688 -y 1518.605296 -U 0.297599 -V 4.660508 -T 0.101857
n -t 9.400000 -s 4 -x 1310.653146 -y 1379.760716 -U 3.114392 -V -0.400206 -T 0.101739
n -t 9.400000 -s 5 -x 1638.817762 -y 1407.248046 -U 0.293612 -V -0.892968 -T 0.109798
n -t 9.500000 -s 0 -x 1675.949075 -y 1511.242418 -U 4.994442 -V -12.885959 -T 0.100297
n -t 9.500000 -s 1 -x 1664.019975 -y 1198.837939 -U 0.199938 -V 8.307594 -T 0.100157
n -t 9.500000 -s 2 -x 1662.488451 -y 1486.425490 -U 14.934836 -V -2.544241 -T 0.155445
n -t 9.500000 -s 3 -x 1413.949447 -y 1519.071347 -U 0.302026 -V 4.830567 -T 0.101158
n -t 9.500000 -s 4 -x 1310.964585 -y 1379.720696 -U 3.322267 -V -0.502139 -T 0.100960
n -t 9.500000 -s 5 -x 1638.847123 -y 1407.158750 -U 0.284529 -V -1.114246 -T 0.115549
n -t 9.600000 -s 0 -x 1676.448519 -y 1509.953822 -U 4.986318 -V -12.964133 -T 0.100571
n -t 9.600000 -s 1 -x 1664.039969 -y 1199.668699 -U 0.099564 -V 8.449413 -T 0.100753
n -t 9.600000 -s 2 -x 1663.981934 -y 1486.171066 -U 15.096675 -V -2.546864 -T 0.153548
n -t 9.600000 -s 3 -x 1413.979650 -y 1519.554404 -U 0.300799 -V 5.010980 -T 0.100898
n -t 9.600000 -s 4 -x 1311.296812 -y 1379.670482 -U 3.538089 -V -0.394364 -T 0.102651
n -t 9.600000 -s 5 -x 1638.875576 -y 1407.047325 -U 0.389743 -V -1.292517 -T 0.113983
n -t 9.700000 -s 0 -x 1676.947151 -y 1508.657408 -U 4.926631 -V -12.869216 -T 0.100038
n -t 9.700000 -s 1 -x 1664.049925 -y 1200.513640 -U 0.199469 -V 8.707716 -T 0.100642
n -t 9.700000 -s 2 -x 1665.491602 -y 1485.916380 -U 15.320494 -V -2.542318 -T 0.151979
n -t 9.700000 -s 3 -x 1414.009730 -y 1520.055502 -U 0.395929 -V 5.255106 -T 0.101710
n -t 9.700000 -s 4 -x 1311.650621 -y 1379.631045 -U 3.746242 -V -0.504056 -T 0.101269
n -t 9.700000 -s 5 -x 1638.914550 -y 1406.918073 -U 0.378373 -V -1.482476 -T 0.120119
n -t 9.800000 -s 0 -x 1677.439814 -y 1507.370487 -U 3.720557 -V -13.372055 -T 0.099498
n -t 9.800000 -s 1 -x 1664.069872 -y 1201.384412 -U 0.200872 -V 8.937743 -T 0.100203