n -t * -s 0  -x 0 -y 0 -Z 0 -z 20  -v circle -c black
n -t * -s 1  -x 0 -y 0 -Z 0 -z 20  -v circle -c black
n -t * -s 2  -x 0 -y 0 -Z 0 -z 20  -v circle -c black
n -t * -s 3  -x 0 -y 0 -Z 0 -z 20  -v circle -c black
n -t * -s 4  -x 0 -y 0 -Z 0 -z 20  -v circle -c black
n -t * -s 5  -x 0 -y 0 -Z 0 -z 20  -v circle -c black
n -t * -s 6  -x 0 -y 0 -Z 0 -z 20  -v circle -c black
n -t * -s 7  -x 0 -y 0 -Z 0 -z 20  -v circle -c black
V -t * -v 1.0a5 -a 0
W -t * -x 2062 -y 3019
A -t * -n 1 -p 0 -o 0x7fffffff -c 30 -a 1
A -t * -h 1 -m 1073741823 -s 0
n -t 0.000000 -s 0 -x 824.320000 -y 1250.610000 -U 0.000000 -V 0.000000 -T 0.000000
n -t 0.100000 -s 0 -x 824.320000 -y 1250.610000 -U 0.250000 -V 0.000000 -T 0.080000
n -t 0.200000 -s 0 -x 824.340000 -y 1250.610000 -U 0.490000 -V 0.000000 -T 0.102041
n -t 0.300000 -s 0 -x 824.389000 -y 1250.610000 -U 0.750000 -V 0.000000 -T 0.108000
n -t 0.400000 -s 0 -x 824.464000 -y 1250.610000 -U 0.974726 -V -0.101534 -T 0.098489
n -t 0.500000 -s 0 -x 824.560000 -y 1250.600000 -U 1.210000 -V 0.000000 -T 0.099174
n -t 0.600000 -s 0 -x 824.680000 -y 1250.600000 -U 1.456766 -V -0.097118 -T 0.102968
n -t 0.700000 -s 0 -x 824.825677 -y 1250.590288 -U 1.659998 -V -0.002745 -T 0.105014
n -t 0.800000 -s 0 -x 824.991676 -y 1250.590014 -U 1.897583 -V -0.095813 -T 0.104514
n -t 0.900000 -s 0 -x 825.181435 -y 1250.580432 -U 2.097612 -V -0.100122 -T 0.104197
n -t 1.000000 -s 0 -x 825.391196 -y 1250.570420 -U 2.269996 -V -0.004169 -T 0.100795
n -t 1.100000 -s 0 -x 825.618195 -y 1250.570003 -U 2.528006 -V -0.100429 -T 0.099606
n -t 1.200000 -s 0 -x 825.870000 -y 1250.560000 -U 2.698150 -V -0.099931 -T 0.100069
n -t 1.300000 -s 0 -x 826.139815 -y 1250.550007 -U 2.898277 -V -0.099945 -T 0.100123
n -t 1.400000 -s 0 -x 826.429643 -y 1250.540012 -U 3.093575 -V -0.199479 -T 0.100323
n -t 1.500000 -s 0 -x 826.739000 -y 1250.520064 -U 3.288480 -V -0.099990 -T 0.100654
n -t 1.600000 -s 0 -x 827.067848 -y 1250.510065 -U 3.508567 -V -0.100284 -T 0.100369
n -t 1.700000 -s 0 -x 827.418705 -y 1250.500037 -U 3.768695 -V -0.099205 -T 0.101174
n -t 1.800000 -s 0 -x 827.795574 -y 1250.490116 -U 3.904925 -V -0.199159 -T 0.101007
n -t 1.900000 -s 0 -x 828.186067 -y 1250.470201 -U 4.128747 -V -0.101745 -T 0.100256
n -t 2.000000 -s 0 -x 828.598942 -y 1250.460026 -U 4.295367 -V -0.199554 -T 0.100354
n -t 2.000000 -s 1 -x 776.930000 -y 787.610000 -U 0.000000 -V 0.000000 -T 0.000000
n -t 2.100000 -s 0 -x 829.028478 -y 1250.440071 -U 4.485571 -V -0.199389 -T 0.100661
n -t 2.100000 -s 1 -x 776.930000 -y 787.610000 -U 0.183848 -V 0.183848 -T 0.108786
n -t 2.200000 -s 0 -x 829.477035 -y 1250.420132 -U 4.668929 -V -0.100017 -T 0.101300
n -t 2.200000 -s 1 -x 776.948385 -y 787.628385 -U 0.406101 -V 0.308516 -T 0.102475
n -t 2.300000 -s 0 -x 829.943928 -y 1250.410130 -U 4.825863 -V -0.199857 -T 0.100722
n -t 2.300000 -s 1 -x 776.988995 -y 787.659236 -U 0.615282 -V 0.411131 -T 0.099150
n -t 2.400000 -s 0 -x 830.426515 -y 1250.390144 -U 5.026134 -V -0.197178 -T 0.102163
n -t 2.400000 -s 1 -x 777.050000 -y 787.700000 -U 0.760000 -V 0.570000 -T 0.105263
n -t 2.500000 -s 0 -x 830.929128 -y 1250.370427 -U 5.256111 -V -0.202241 -T 0.101001
n -t 2.500000 -s 1 -x 777.126000 -y 787.757000 -U 0.931969 -V 0.723763 -T 0.100862
n -t 2.600000 -s 0 -x 831.454739 -y 1250.350202 -U 5.476376 -V -0.199251 -T 0.101392
n -t 2.600000 -s 1 -x 777.219197 -y 787.829376 -U 1.197748 -V 0.799374 -T 0.100858
n -t 2.700000 -s 0 -x 832.002377 -y 1250.330277 -U 5.716479 -V -0.200676 -T 0.101045
n -t 2.700000 -s 1 -x 777.338972 -y 787.909314 -U 1.292476 -V 0.993180 -T 0.101378
n -t 2.800000 -s 0 -x 832.574024 -y 1250.310210 -U 5.976677 -V -0.199327 -T 0.101390
n -t 2.800000 -s 1 -x 777.468219 -y 788.008632 -U 1.451244 -V 1.064843 -T 0.104587
n -t 2.900000 -s 0 -x 833.171692 -y 1250.290277 -U 6.196774 -V -0.199985 -T 0.101393
n -t 2.900000 -s 1 -x 777.613344 -y 788.115116 -U 1.638429 -V 1.129446 -T 0.101717
n -t 3.000000 -s 0 -x 833.791370 -y 1250.270279 -U 6.432995 -V -0.300297 -T 0.100829
n -t 3.000000 -s 1 -x 777.777187 -y 788.228061 -U 1.769315 -V 1.373726 -T 0.103324
n -t 3.000000 -s 2 -x 1301.530000 -y 1285.980000 -U 0.000000 -V 0.000000 -T 0.000000
n -t 3.100000 -s 0 -x 834.434669 -y 1250.240249 -U 6.566959 -V -0.199861 -T 0.101315
n -t 3.100000 -s 1 -x 777.954118 -y 788.365433 -U 1.963222 -V 1.448917 -T 0.099776
n -t 3.100000 -s 2 -x 1301.530000 -y 1285.980000 -U 0.000000 -V 0.260000 -T 0.076923
n -t 3.200000 -s 0 -x 835.091365 -y 1250.220263 -U 6.803434 -V -0.298984 -T 0.101219
n -t 3.200000 -s 1 -x 778.150000 -y 788.510000 -U 2.167413 -V 1.576300 -T 0.101504
n -t 3.200000 -s 2 -x 1301.530000 -y 1286.000000 -U 0.000000 -V 0.500000 -T 0.100000
n -t 3.300000 -s 0 -x 835.771708 -y 1250.190364 -U 6.967121 -V -0.200315 -T 0.101662
n -t 3.300000 -s 1 -x 778.366741 -y 788.667630 -U 2.332295 -V 1.723484 -T 0.100013
n -t 3.300000 -s 2 -x 1301.530000 -y 1286.050000 -U -0.094266 -V 0.754131 -T 0.106082
n -t 3.400000 -s 0 -x 836.468420 -y 1250.170333 -U 7.123709 -V -0.299458 -T 0.101293
n -t 3.400000 -s 1 -x 778.599971 -y 788.839978 -U 2.452182 -V 1.863653 -T 0.101962
n -t 3.400000 -s 2 -x 1301.520573 -y 1286.125413 -U -0.005427 -V 0.989985 -T 0.105645
n -t 3.500000 -s 0 -x 837.180791 -y 1250.140387 -U 7.267237 -V -0.200428 -T 0.101718
n -t 3.500000 -s 1 -x 778.845189 -y 789.026344 -U 2.623357 -V 1.918462 -T 0.100944
n -t 3.500000 -s 2 -x 1301.520031 -y 1286.224412 -U -0.000290 -V 1.190000 -T 0.105536
n -t 3.600000 -s 0 -x 837.907515 -y 1250.120344 -U 7.463934 -V -0.300987 -T 0.100816
n -t 3.600000 -s 1 -x 779.107525 -y 789.218190 -U 2.776218 -V 2.081709 -T 0.101748
n -t 3.600000 -s 2 -x 1301.520002 -y 1286.343412 -U -0.095980 -V 1.406729 -T 0.104205
n -t 3.700000 -s 0 -x 838.653908 -y 1250.090246 -U 7.594084 -V -0.299818 -T 0.100880
n -t 3.700000 -s 1 -x 779.385147 -y 789.426361 -U 2.983325 -V 2.188555 -T 0.102186
n -t 3.700000 -s 2 -x 1301.510404 -y 1286.484085 -U -0.103259 -V 1.646766 -T 0.100752
n -t 3.800000 -s 0 -x 839.413317 -y 1250.060264 -U 7.834349 -V -0.297606 -T 0.101691
n -t 3.800000 -s 1 -x 779.683479 -y 789.645216 -U 3.116277 -V 2.311541 -T 0.101570
n -t 3.800000 -s 2 -x 1301.500078 -y 1286.648761 -U -0.000776 -V 1.910000 -T 0.100125
n -t 3.900000 -s 0 -x 840.196752 -y 1250.030503 -U 8.024357 -V -0.300977 -T 0.101347
n -t 3.900000 -s 1 -x 779.995107 -y 789.876370 -U 3.323571 -V 2.417846 -T 0.100763
n -t 3.900000 -s 2 -x 1301.500000 -y 1286.839761 -U -0.098349 -V 2.067662 -T 0.101679
n -t 4.000000 -s 0 -x 840.999187 -y 1250.000406 -U 8.264467 -V -0.302458 -T 0.100528
n -t 4.000000 -s 1 -x 780.327464 -y 790.118155 -U 3.500148 -V 2.599723 -T 0.100720
n -t 4.000000 -s 2 -x 1301.490165 -y 1287.046527 -U -0.100423 -V 2.207717 -T 0.101223
n -t 4.100000 -s 0 -x 841.825634 -y 1249.970160 -U 8.484715 -V -0.299517 -T 0.100695
n -t 4.100000 -s 1 -x 780.677479 -y 790.378127 -U 3.699527 -V 2.699981 -T 0.100694
n -t 4.100000 -s 2 -x 1301.480123 -y 1287.267299 -U -0.001196 -V 2.460000 -T 0.102724
n -t 4.200000 -s 0 -x 842.674106 -y 1249.940208 -U 8.714819 -V -0.300559 -T 0.100506
n -t 4.200000 -s 1 -x 781.047431 -y 790.648125 -U 3.866519 -V 2.776262 -T 0.101530
n -t 4.200000 -s 2 -x 1301.480003 -y 1287.513299 -U -0.097546 -V 2.698237 -T 0.102549
n -t 4.300000 -s 0 -x 843.545588 -y 1249.910152 -U 8.965019 -V -0.298884 -T 0.100882
n -t 4.300000 -s 1 -x 781.434083 -y 790.925752 -U 4.016898 -V 3.010802 -T 0.101052
n -t 4.300000 -s 2 -x 1301.470249 -y 1287.783123 -U -0.102108 -V 2.858177 -T 0.100371
n -t 4.400000 -s 0 -x 844.442089 -y 1249.880264 -U 9.181361 -V -0.398396 -T 0.101065
n -t 4.400000 -s 1 -x 781.835773 -y 791.226832 -U 4.207693 -V 3.106158 -T 0.100822
n -t 4.400000 -s 2 -x 1301.460038 -y 1288.068940 -U -0.099985 -V 3.098387 -T 0.100394
n -t 4.500000 -s 0 -x 845.360225 -y 1249.840424 -U 9.395181 -V -0.300956 -T 0.101092
n -t 4.500000 -s 1 -x 782.256542 -y 791.537448 -U 4.366998 -V 3.176371 -T 0.101547
n -t 4.500000 -s 2 -x 1301.450039 -y 1288.378779 -U -0.099372 -V 3.278494 -T 0.101028
n -t 4.600000 -s 0 -x 846.299744 -y 1249.810329 -U 9.581727 -V -0.398263 -T 0.101261
n -t 4.600000 -s 1 -x 782.693242 -y 791.855085 -U 4.476934 -V 3.380705 -T 0.102025
n -t 4.600000 -s 2 -x 1301.440102 -y 1288.706629 -U -0.200461 -V 3.424137 -T 0.100280
n -t 4.700000 -s 0 -x 847.257916 -y 1249.770502 -U 9.795371 -V -0.301165 -T 0.101281
n -t 4.700000 -s 1 -x 783.140936 -y 792.193155 -U 4.697962 -V 3.401346 -T 0.101973
n -t 4.700000 -s 2 -x 1301.420056 -y 1289.049042 -U -0.098638 -V 3.638663 -T 0.101949
n -t 4.800000 -s 0 -x 848.237453 -y 1249.740386 -U 10.042016 -V -0.400529 -T 0.100831
n -t 4.800000 -s 1 -x 783.610732 -y 792.533290 -U 4.791708 -V 3.493485 -T 0.102107
n -t 4.800000 -s 2 -x 1301.410192 -y 1289.412909 -U -0.101600 -V 3.858663 -T 0.100317
n -t 4.900000 -s 0 -x 849.241655 -y 1249.700333 -U 10.192164 -V -0.399748 -T 0.100896
n -t 4.900000 -s 1 -x 784.089903 -y 792.882638 -U 4.925160 -V 3.716409 -T 0.101539
n -t 4.900000 -s 2 -x 1301.400032 -y 1289.798775 -U -0.196570 -V 4.035215 -T 0.101909
n -t 5.000000 -s 0 -x 850.260871 -y 1249.660358 -U 10.385653 -V -0.300524 -T 0.101017
n -t 5.000000 -s 1 -x 784.582419 -y 793.254279 -U 5.059544 -V 3.770559 -T 0.102298
n -t 5.000000 -s 2 -x 1301.380375 -y 1290.202296 -U -0.103067 -V 4.248750 -T 0.100666
n -t 5.100000 -s 0 -x 851.299437 -y 1249.630306 -U 10.582503 -V -0.398421 -T 0.101164
n -t 5.100000 -s 1 -x 785.088373 -y 793.631335 -U 5.231106 -V 3.824386 -T 0.101628
n -t 5.100000 -s 2 -x 1301.370069 -y 1290.627171 -U -0.099790 -V 4.388866 -T 0.100898
n -t 5.200000 -s 0 -x 852.357687 -y 1249.590464 -U 10.722509 -V -0.400874 -T 0.100938
n -t 5.200000 -s 1 -x 785.611484 -y 794.013774 -U 5.360111 -V 3.969649 -T 0.102333
n -t 5.200000 -s 2 -x 1301.360090 -y 1291.066058 -U -0.199435 -V 4.605684 -T 0.100732
n -t 5.300000 -s 0 -x 853.429938 -y 1249.550376 -U 10.932639 -V -0.401267 -T 0.100622
n -t 5.300000 -s 1 -x 786.147495 -y 794.410739 -U 5.542660 -V 4.059042 -T 0.103291
n -t 5.300000 -s 2 -x 1301.340146 -y 1291.526626 -U -0.199048 -V 4.775854 -T 0.101212
n -t 5.400000 -s 0 -x 854.523202 -y 1249.510250 -U 11.132900 -V -0.397670 -T 0.101213
n -t 5.400000 -s 1 -x 786.701761 -y 794.816643 -U 5.732381 -V 4.223057 -T 0.102617
n -t 5.400000 -s 2 -x 1301.320241 -y 1292.004212 -U -0.100410 -V 4.958984 -T 0.101994
n -t 5.500000 -s 0 -x 855.636492 -y 1249.470483 -U 11.362882 -V -0.402269 -T 0.100635
n -t 5.500000 -s 1 -x 787.274999 -y 795.238948 -U 5.882736 -V 4.288568 -T 0.102844
n -t 5.500000 -s 2 -x 1301.310200 -y 1292.500110 -U -0.198787 -V 5.116140 -T 0.101618
n -t 5.600000 -s 0 -x 856.772780 -y 1249.430256 -U 11.519143 -V -0.500252 -T 0.100461
n -t 5.600000 -s 1 -x 787.863272 -y 795.667805 -U 6.017644 -V 4.509807 -T 0.102487
n -t 5.600000 -s 2 -x 1301.290322 -y 1293.011724 -U -0.202590 -V 5.366177 -T 0.100309
n -t 5.700000 -s 0 -x 857.924694 -y 1249.380230 -U 11.743238 -V -0.398577 -T 0.100935
n -t 5.700000 -s 1 -x 788.465037 -y 796.118786 -U 6.205690 -V 4.507584 -T 0.102320
n -t 5.700000 -s 2 -x 1301.270063 -y 1293.548342 -U -0.198478 -V 5.556456 -T 0.101082
n -t 5.800000 -s 0 -x 859.099018 -y 1249.340373 -U 11.953248 -V -0.401826 -T 0.100473
n -t 5.800000 -s 1 -x 789.085606 -y 796.569544 -U 6.384092 -V 4.687192 -T 0.102504
n -t 5.800000 -s 2 -x 1301.250215 -y 1294.103987 -U -0.201317 -V 5.736469 -T 0.100412
n -t 5.900000 -s 0 -x 860.294343 -y 1249.300190 -U 12.099692 -V -0.499553 -T 0.100470
n -t 5.900000 -s 1 -x 789.724015 -y 797.038264 -U 6.484049 -V 4.787557 -T 0.102711
n -t 5.900000 -s 2 -x 1301.230083 -y 1294.677634 -U -0.199264 -V 5.976679 -T 0.100786
n -t 6.000000 -s 0 -x 861.504312 -y 1249.250235 -U 12.313474 -V -0.400935 -T 0.100353
n -t 6.000000 -s 1 -x 790.372420 -y 797.517019 -U 6.584196 -V 4.887572 -T 0.102910
n -t 6.000000 -s 2 -x 1301.210157 -y 1295.275302 -U -0.198334 -V 6.146801 -T 0.101630
n -t 6.100000 -s 0 -x 862.735659 -y 1249.210141 -U 12.490025 -V -0.499279 -T 0.100427
n -t 6.100000 -s 1 -x 791.030839 -y 798.005777 -U 6.766847 -V 4.976925 -T 0.103321
n -t 6.100000 -s 2 -x 1301.190323 -y 1295.889982 -U -0.202172 -V 6.366791 -T 0.100524
n -t 6.200000 -s 0 -x 863.984662 -y 1249.160213 -U 12.673701 -V -0.399621 -T 0.100629
n -t 6.200000 -s 1 -x 791.707524 -y 798.503469 -U 6.924337 -V 5.117192 -T 0.102894
n -t 6.200000 -s 2 -x 1301.170106 -y 1296.526661 -U -0.198745 -V 6.556989 -T 0.101165
n -t 6.300000 -s 0 -x 865.252032 -y 1249.120251 -U 12.910328 -V -0.499827 -T 0.100537
n -t 6.300000 -s 1 -x 792.399958 -y 799.015188 -U 7.098926 -V 5.200504 -T 0.102838
n -t 6.300000 -s 2 -x 1301.150232 -y 1297.182360 -U -0.200244 -V 6.707011 -T 0.101035
n -t 6.400000 -s 0 -x 866.543065 -y 1249.070269 -U 13.070482 -V -0.498911 -T 0.100756
n -t 6.400000 -s 1 -x 793.109850 -y 799.535239 -U 7.177634 -V 5.379821 -T 0.103119
n -t 6.400000 -s 2 -x 1301.130207 -y 1297.853061 -U -0.300489 -V 6.833396 -T 0.100527
n -t 6.500000 -s 0 -x 867.850113 -y 1249.020377 -U 13.323952 -V -0.401516 -T 0.100562
n -t 6.500000 -s 1 -x 793.827614 -y 800.073221 -U 7.397317 -V 5.402342 -T 0.103063
n -t 6.500000 -s 2 -x 1301.100158 -y 1298.536401 -U -0.199610 -V 6.967141 -T 0.100988
n -t 6.600000 -s 0 -x 869.182508 -y 1248.980226 -U 13.520749 -V -0.500253 -T 0.100401
n -t 6.600000 -s 1 -x 794.567345 -y 800.613455 -U 7.507948 -V 5.505163 -T 0.102912
n -t 6.600000 -s 2 -x 1301.080197 -y 1299.233115 -U -0.200517 -V 7.117176 -T 0.100726
n -t 6.700000 -s 0 -x 870.534583 -y 1248.930200 -U 13.740982 -V -0.497903 -T 0.100824
n -t 6.700000 -s 1 -x 795.318140 -y 801.163971 -U 7.676448 -V 5.681078 -T 0.103154
n -t 6.700000 -s 2 -x 1301.060146 -y 1299.944833 -U -0.297857 -V 7.263896 -T 0.101208
n -t 6.800000 -s 0 -x 871.908681 -y 1248.880410 -U 13.840918 -V -0.501483 -T 0.100522
n -t 6.800000 -s 1 -x 796.085785 -y 801.732079 -U 7.858628 -V 5.771002 -T 0.103608
n -t 6.800000 -s 2 -x 1301.030360 -y 1300.671222 -U -0.201976 -V 7.527291 -T 0.100804
n -t 6.900000 -s 0 -x 873.292773 -y 1248.830262 -U 13.760971 -V -0.498586 -T 0.100809
n -t 6.900000 -s 1 -x 796.871648 -y 802.309179 -U 7.949705 -V 5.933683 -T 0.102941
n -t 6.900000 -s 2 -x 1301.010162 -y 1301.423951 -U -0.298698 -V 7.784271 -T 0.100979
n -t 7.000000 -s 0 -x 874.668870 -y 1248.780403 -U 13.760840 -V -0.502191 -T 0.100367
n -t 7.000000 -s 1 -x 797.666618 -y 802.902548 -U 8.165561 -V 5.978128 -T 0.103285
n -t 7.000000 -s 2 -x 1300.980292 -y 1302.202379 -U -0.299855 -V 7.994378 -T 0.101024
n -t 7.000000 -s 3 -x 1723.940000 -y 1492.150000 -U 0.000000 -V 0.000000 -T 0.000000
n -t 7.100000 -s 0 -x 876.044954 -y 1248.730184 -U 13.770964 -V -0.498961 -T 0.100577
n -t 7.100000 -s 1 -x 798.483174 -y 803.500361 -U 8.275785 -V 6.081471 -T 0.103534
n -t 7.100000 -s 2 -x 1300.950307 -y 1303.001816 -U -0.300240 -V 8.204508 -T 0.100943
n -t 7.100000 -s 3 -x 1723.940000 -y 1492.150000 -U 0.232551 -V 0.116276 -T 0.086003
n -t 7.200000 -s 0 -x 877.422050 -y 1248.680288 -U 13.760971 -V -0.498586 -T 0.100861
n -t 7.200000 -s 1 -x 799.310753 -y 804.108508 -U 8.416284 -V 6.211100 -T 0.103282
n -t 7.200000 -s 2 -x 1300.920283 -y 1303.822267 -U -0.200205 -V 8.367605 -T 0.101311
n -t 7.200000 -s 3 -x 1723.960000 -y 1492.160000 -U 0.346482 -V 0.346482 -T 0.115446
n -t 7.300000 -s 0 -x 878.798147 -y 1248.630429 -U 13.840918 -V -0.501483 -T 0.100561
n -t 7.300000 -s 1 -x 800.152381 -y 804.729618 -U 8.558431 -V 6.270994 -T 0.103713
n -t 7.300000 -s 2 -x 1300.900263 -y 1304.659028 -U -0.302097 -V 8.594692 -T 0.100175
n -t 7.300000 -s 3 -x 1723.994648 -y 1492.194648 -U 0.564675 -V 0.478270 -T 0.115733
n -t 7.400000 -s 0 -x 880.182239 -y 1248.580281 -U 13.836952 -V -0.601046 -T 0.100294
n -t 7.400000 -s 1 -x 801.008224 -y 805.356717 -U 8.662037 -V 6.467242 -T 0.104107
n -t 7.400000 -s 2 -x 1300.870053 -y 1305.518497 -U -0.298479 -V 8.754914 -T 0.100687
n -t 7.400000 -s 3 -x 1724.051116 -y 1492.242475 -U 0.706093 -V 0.693925 -T 0.111719
n -t 7.500000 -s 0 -x 881.565934 -y 1248.520177 -U 13.780947 -V -0.499601 -T 0.100433
n -t 7.500000 -s 1 -x 801.874428 -y 806.003441 -U 8.904703 -V 6.509007 -T 0.103942
n -t 7.500000 -s 2 -x 1300.840205 -y 1306.393988 -U -0.299879 -V 8.995003 -T 0.100724
n -t 7.500000 -s 3 -x 1724.121725 -y 1492.311868 -U 0.863296 -V 0.862044 -T 0.113837
n -t 7.600000 -s 0 -x 882.944029 -y 1248.470216 -U 13.780957 -V -0.499311 -T 0.100571
n -t 7.600000 -s 1 -x 802.764898 -y 806.654342 -U 9.042241 -V 6.726870 -T 0.103415
n -t 7.600000 -s 2 -x 1300.810217 -y 1307.293489 -U -0.298301 -V 9.245189 -T 0.101297
n -t 7.600000 -s 3 -x 1724.208055 -y 1492.398072 -U 1.060874 -V 0.973728 -T 0.114948
n -t 7.700000 -s 0 -x 884.322125 -y 1248.420285 -U 13.850912 -V -0.501845 -T 0.100201
n -t 7.700000 -s 1 -x 803.669122 -y 807.327029 -U 9.281356 -V 6.790172 -T 0.103528
n -t 7.700000 -s 2 -x 1300.780387 -y 1308.218007 -U -0.401814 -V 9.471481 -T 0.100511
n -t 7.700000 -s 3 -x 1724.314142 -y 1492.495445 -U 1.200753 -V 1.189240 -T 0.113144
n -t 7.800000 -s 0 -x 885.707216 -y 1248.370101 -U 13.851042 -V -0.498246 -T 0.100554
n -t 7.800000 -s 1 -x 804.597258 -y 808.006046 -U 9.436042 -V 6.951223 -T 0.104148
n -t 7.800000 -s 2 -x 1300.740206 -y 1309.165156 -U -0.298242 -V 9.625381 -T 0.101279
n -t 7.800000 -s 3 -x 1724.434218 -y 1492.614369 -U 1.315858 -V 1.314579 -T 0.118389
n -t 7.900000 -s 0 -x 887.092320 -y 1248.320276 -U 13.850912 -V -0.501825 -T 0.100187
n -t 7.900000 -s 1 -x 805.540862 -y 808.701168 -U 9.608349 -V 7.105077 -T 0.103986
n -t 7.900000 -s 2 -x 1300.710381 -y 1310.127694 -U -0.302028 -V 9.765330 -T 0.100591
n -t 7.900000 -s 3 -x 1724.565803 -y 1492.745827 -U 1.463810 -V 1.463612 -T 0.119002
n -t 8.000000 -s 0 -x 888.477411 -y 1248.270094 -U 13.810938 -V -0.500396 -T 0.100108
n -t 8.000000 -s 1 -x 806.501697 -y 809.411676 -U 9.716434 -V 7.211165 -T 0.103773
n -t 8.000000 -s 2 -x 1300.680179 -y 1311.104227 -U -0.400341 -V 9.921927 -T 0.100361
n -t 8.000000 -s 3 -x 1724.712184 -y 1492.892188 -U 1.706397 -V 1.542144 -T 0.121786
n -t 8.000000 -s 4 -x 1649.890000 -y 1653.480000 -U 0.000000 -V 0.000000 -T 0.000000
n -t 8.100000 -s 0 -x 889.858505 -y 1248.220054 -U 13.811067 -V -0.496805 -T 0.100752
n -t 8.100000 -s 1 -x 807.473340 -y 810.132793 -U 9.964816 -V 7.278601 -T 0.104032
n -t 8.100000 -s 2 -x 1300.640144 -y 1312.096419 -U -0.299671 -V 10.175588 -T 0.100592
n -t 8.100000 -s 3 -x 1724.882824 -y 1493.046402 -U 1.789520 -V 1.760034 -T 0.121360
n -t 8.100000 -s 4 -x 1649.890000 -y 1653.480000 -U 0.000000 -V -0.250000 -T 0.120000
n -t 8.200000 -s 0 -x 891.239612 -y 1248.170374 -U 13.860906 -V -0.502180 -T 0.100310
n -t 8.200000 -s 1 -x 808.469822 -y 810.860653 -U 10.053949 -V 7.461133 -T 0.104454
n -t 8.200000 -s 2 -x 1300.610177 -y 1313.113978 -U -0.398398 -V 10.372352 -T 0.100847
n -t 8.200000 -s 3 -x 1725.061776 -y 1493.222406 -U 1.937786 -V 1.851320 -T 0.122936
n -t 8.200000 -s 4 -x 1649.890000 -y 1653.455000 -U 0.091232 -V -0.501774 -T 0.109611
n -t 8.300000 -s 0 -x 892.625702 -y 1248.120156 -U 13.820931 -V -0.500758 -T 0.100159
n -t 8.300000 -s 1 -x 809.475217 -y 811.606766 -U 10.274677 -V 7.583133 -T 0.104605
n -t 8.300000 -s 2 -x 1300.570337 -y 1314.151213 -U -0.301880 -V 10.535676 -T 0.100495
n -t 8.300000 -s 3 -x 1725.255555 -y 1493.407538 -U 2.030222 -V 2.014398 -T 0.125329
n -t 8.300000 -s 4 -x 1649.899123 -y 1653.404823 -U 0.106454 -V -0.732303 -T 0.102174
n -t 8.400000 -s 0 -x 894.007796 -y 1248.070080 -U 13.750977 -V -0.498224 -T 0.100517
n -t 8.400000 -s 1 -x 810.502685 -y 812.365079 -U 10.448532 -V 7.734867 -T 0.104064
n -t 8.400000 -s 2 -x 1300.540150 -y 1315.204781 -U -0.397443 -V 10.742650 -T 0.101020
n -t 8.400000 -s 3 -x 1725.458577 -y 1493.608978 -U 2.189687 -V 2.108761 -T 0.128522
n -t 8.400000 -s 4 -x 1649.909769 -y 1653.331592 -U 0.195309 -V -0.980742 -T 0.103587
n -t 8.500000 -s 0 -x 895.382893 -y 1248.020257 -U 13.800944 -V -0.500034 -T 0.100508
n -t 8.500000 -s 1 -x 811.547538 -y 813.138566 -U 10.667136 -V 7.876536 -T 0.104289
n -t 8.500000 -s 2 -x 1300.500405 -y 1316.279046 -U -0.300395 -V 10.975890 -T 0.101218
n -t 8.500000 -s 3 -x 1725.677545 -y 1493.819854 -U 2.330889 -V 2.236035 -T 0.129759
n -t 8.500000 -s 4 -x 1649.929299 -y 1653.233518 -U 0.201650 -V -1.203220 -T 0.102656
n -t 8.600000 -s 0 -x 896.762988 -y 1247.970254 -U 13.851041 -V -0.498257 -T 0.100860
n -t 8.600000 -s 1 -x 812.614252 -y 813.926220 -U 10.813923 -V 7.913221 -T 0.104102
n -t 8.600000 -s 2 -x 1300.470366 -y 1317.376635 -U -0.399316 -V 11.112828 -T 0.101087
n -t 8.600000 -s 3 -x 1725.910634 -y 1494.043457 -U 2.431258 -V 2.333641 -T 0.131358
n -t 8.600000 -s 4 -x 1649.949464 -y 1653.113196 -U 0.285399 -V -1.431834 -T 0.106993
n -t 8.700000 -s 0 -x 898.148092 -y 1247.920428 -U 13.850913 -V -0.501814 -T 0.100492
n -t 8.700000 -s 1 -x 813.695644 -y 814.717542 -U 11.124582 -V 7.857994 -T 0.104665
n -t 8.700000 -s 2 -x 1300.430434 -y 1318.487918 -U -0.400521 -V 11.312912 -T 0.100954
n -t 8.700000 -s 3 -x 1726.153760 -y 1494.276821 -U 2.601247 -V 2.503121 -T 0.133105
n -t 8.700000 -s 4 -x 1649.978004 -y 1652.970013 -U 0.218123 -V -1.685948 -T 0.100841
n -t 8.800000 -s 0 -x 899.533183 -y 1247.870247 -U 13.840918 -V -0.501482 -T 0.100197
n -t 8.800000 -s 1 -x 814.808102 -y 815.503341 -U 11.403798 -V 7.717921 -T 0.104518
n -t 8.800000 -s 2 -x 1300.390382 -y 1319.619209 -U -0.398434 -V 11.453072 -T 0.101352
n -t 8.800000 -s 3 -x 1726.413885 -y 1494.527133 -U 2.714454 -V 2.616227 -T 0.134876
n -t 8.800000 -s 4 -x 1649.999817 -y 1652.801418 -U 0.394458 -V -1.879043 -T 0.101870
n -t 8.900000 -s 0 -x 900.917275 -y 1247.820099 -U 13.810938 -V -0.500396 -T 0.100118
n -t 8.900000 -s 1 -x 815.948482 -y 816.275133 -U 11.572375 -V 7.879095 -T 0.104691
n -t 8.900000 -s 2 -x 1300.350539 -y 1320.764516 -U -0.400200 -V 11.703159 -T 0.101296
n -t 8.900000 -s 3 -x 1726.685330 -y 1494.788756 -U 2.891322 -V 2.792966 -T 0.136501
n -t 8.900000 -s 4 -x 1650.039262 -y 1652.613514 -U 0.296998 -V -2.159674 -T 0.103494
n -t 9.000000 -s 0 -x 902.298369 -y 1247.770059 -U 13.851042 -V -0.498243 -T 0.100471
n -t 9.000000 -s 1 -x 817.105719 -y 817.063043 -U 11.672992 -V 7.980029 -T 0.104881
n -t 9.000000 -s 2 -x 1300.310519 -y 1321.934832 -U -0.400869 -V 11.923263 -T 0.101077
n -t 9.000000 -s 3 -x 1726.974462 -y 1495.068053 -U 3.075123 -V 2.976914 -T 0.138381
n -t 9.000000 -s 4 -x 1650.068962 -y 1652.397546 -U 0.408565 -V -2.364968 -T 0.100444
n -t 9.000000 -s 5 -x 1960.360000 -y 1048.650000 -U 0.000000 -V 0.000000 -T 0.000000
n -t 9.100000 -s 0 -x 903.683473 -y 1247.720235 -U 13.810938 -V -0.500379 -T 0.100393
n -t 9.100000 -s 1 -x 818.273019 -y 817.861046 -U 11.834797 -V 8.026680 -T 0.104521
n -t 9.100000 -s 2 -x 1300.270432 -y 1323.127158 -U -0.400183 -V 12.103386 -T 0.101033
n -t 9.100000 -s 3 -x 1727.281975 -y 1495.365744 -U 3.294614 -V 3.123639 -T 0.139022
n -t 9.100000 -s 4 -x 1650.109819 -y 1652.161049 -U 0.490810 -V -2.553254 -T 0.102242
n -t 9.100000 -s 5 -x 1960.360000 -y 1048.650000 -U 0.000000 -V 0.250000 -T 0.120000
n -t 9.200000 -s 0 -x 905.064567 -y 1247.670197 -U 13.820931 -V -0.500758 -T 0.100242
n -t 9.200000 -s 1 -x 819.456498 -y 818.663714 -U 11.940034 -V 8.156421 -T 0.104983
n -t 9.200000 -s 2 -x 1300.230413 -y 1324.337497 -U -0.400506 -V 12.313488 -T 0.100906
n -t 9.200000 -s 3 -x 1727.611436 -y 1495.678108 -U 3.381786 -V 3.263974 -T 0.141512
n -t 9.200000 -s 4 -x 1650.158900 -y 1651.905724 -U 0.400090 -V -2.781372 -T 0.102728
n -t 9.200000 -s 5 -x 1960.360000 -y 1048.675000 -U 0.000000 -V 0.490000 -T 0.112245
n -t 9.300000 -s 0 -x 906.446660 -y 1247.620121 -U 13.851041 -V -0.498248 -T 0.100595
n -t 9.300000 -s 1 -x 820.650502 -y 819.479356 -U 12.167460 -V 8.248813 -T 0.104336
n -t 9.300000 -s 2 -x 1300.190363 -y 1325.568846 -U -0.401133 -V 12.533583 -T 0.100622
n -t 9.300000 -s 3 -x 1727.949615 -y 1496.004505 -U 3.538286 -V 3.432992 -T 0.141420
n -t 9.300000 -s 4 -x 1650.198909 -y 1651.627587 -U 0.505937 -V -2.946884 -T 0.100984
n -t 9.300000 -s 5 -x 1960.360000 -y 1048.724000 -U 0.096536 -V 0.733676 -T 0.103588
n -t 9.400000 -s 0 -x 907.831764 -y 1247.570296 -U 13.790952 -V -0.499651 -T 0.100663
n -t 9.400000 -s 1 -x 821.867248 -y 820.304237 -U 12.256057 -V 8.367477 -T 0.104663
n -t 9.400000 -s 2 -x 1300.150250 -y 1326.822204 -U -0.499073 -V 12.790267 -T 0.100686
n -t 9.400000 -s 3 -x 1728.303443 -y 1496.347805 -U 3.305968 -V 3.830689 -T 0.144150
n -t 9.400000 -s 4 -x 1650.249502 -y 1651.332898 -U 0.594169 -V -3.073087 -T 0.101819
n -t 9.400000 -s 5 -x 1960.369654 -y 1048.797368 -U 0.003240 -V 0.959995 -T 0.106909
n -t 9.500000 -s 0 -x 909.210859 -y 1247.520331 -U 13.760839 -V -0.502196 -T 0.100222
n -t 9.500000 -s 1 -x 823.092853 -y 821.140985 -U 12.444555 -V 8.463778 -T 0.105038
n -t 9.500000 -s 2 -x 1300.100342 -y 1328.101231 -U -0.399296 -V 12.953847 -T 0.101033
n -t 9.500000 -s 3 -x 1728.634040 -y 1496.730873 -U 3.426209 -V 4.069827 -T 0.144755
n -t 9.500000 -s 4 -x 1650.308919 -y 1651.025590 -U 0.495075 -V -3.252538 -T 0.103178
n -t 9.500000 -s 5 -x 1960.369978 -y 1048.893367 -U 0.093100 -V 1.176322 -T 0.107652
n -t 9.600000 -s 0 -x 910.586943 -y 1247.470112 -U 13.821061 -V -0.497176 -T 0.100792
n -t 9.600000 -s 1 -x 824.337309 -y 821.987363 -U 12.588149 -V 8.590467 -T 0.105074
n -t 9.600000 -s 2 -x 1300.060413 -y 1329.396616 -U -0.500949 -V 13.150462 -T 0.100634
n -t 9.600000 -s 3 -x 1728.976661 -y 1497.137856 -U 3.511256 -V 4.323885 -T 0.146198
n -t 9.600000 -s 4 -x 1650.358427 -y 1650.700336 -U 0.611049 -V -3.476711 -T 0.100767
n -t 9.600000 -s 5 -x 1960.379288 -y 1049.010999 -U 0.006693 -V 1.399984 -T 0.106430
n -t 9.700000 -s 0 -x 911.969049 -y 1247.420394 -U 13.768612 -V 0.195480 -T 0.100297
n -t 9.700000 -s 1 -x 825.596124 -y 822.846409 -U 12.788095 -V 8.598414 -T 0.105088
n -t 9.700000 -s 2 -x 1300.010318 -y 1330.711662 -U -0.400205 -V 13.384018 -T 0.100742
n -t 9.700000 -s 3 -x 1729.327787 -y 1497.570245 -U 3.631795 -V 4.419102 -T 0.149296
n -t 9.700000 -s 4 -x 1650.419532 -y 1650.352665 -U 0.587804 -V -3.622621 -T 0.102872
n -t 9.700000 -s 5 -x 1960.379957 -y 1049.150998 -U 0.096100 -V 1.617147 -T 0.104506
n -t 9.800000 -s 0 -x 913.345910 -y 1247.439942 -U 13.757055 -V 0.596943 -T 0.100609
n -t 9.800000 -s 1 -x 826.874933 -y 823.706251 -U 12.914642 -V 8.803915 -T 0.104925
n -t 9.800000 -s 2 -x 1299.970297 -y 1332.050064 -U -0.496418 -V 13.520890 -T 0.101320
n -t 9.800000 -s 3 -x 1729.690966 -y 1498.012155 -U 3.707505 -V 4.628100 -T 0.150784
n -t 9.800000 -s 4 -x 1650.478312 -y 1649.990403 -U 0.693527 -V -3.776853 -T 0.103367
n -t 9.800000 -s 5 -x 1960.389567 -y 1049.312712 -U 0.101228 -V 1.817183 -T 0.103065
n -t 9.900000 -s 0 -x 914.721616 -y 1247.499636 -U 13.752093 -V 0.702017 -T 0.100231
n -t 9.900000 -s 1 -x 828.166397 -y 824.586642 -U 13.043685 -V 8.863136 -T 0.105308
n -t 9.900000 -s 2 -x 1299.920655 -y 1333.402153 -U -0.403766 -V 13.684044 -T 0.100690
n -t 9.900000 -s 3 -x 1730.061717 -y 1498.474965 -U 3.874939 -V 4.775704 -T 0.151817
n -t 9.900000 -s 4 -x 1650.547665 -y 1649.612717 -U 0.616449 -V -3.982573 -T 0.101120
n -t 9.900000 -s 5 -x 1960.399690 -y 1049.494431 -U 0.099369 -V 2.077625 -T 0.103758
n -t 10.000000 -s 0 -x 916.096825 -y 1247.569838 -U 13.756993 -V 0.598369 -T 0.100543
n -t 10.000000 -s 1 -x 829.470766 -y 825.472956 -U 13.107496 -V 9.000198 -T 0.105225
n -t 10.000000 -s 2 -x 1299.880279 -y 1334.770557 -U -0.497276 -V 13.841070 -T 0.101108
n -t 10.000000 -s 3 -x 1730.449211 -y 1498.952535 -U 4.025119 -V 4.911305 -T 0.154229
n -t 10.000000 -s 4 -x 1650.609310 -y 1649.214460 -U 0.701472 -V -4.211987 -T 0.100774
n -t 10.000000 -s 5 -x 1960.409627 -y 1049.702193 -U 0.101895 -V 2.237681 -T 0.101805
+ -t 10.000000000 -s 0 -d -1 -p tcp -e 40 -c 2 -a 0 -i 0 -k AGT 
- -t 10.000000000 -s 0 -d -1 -p tcp -e 40 -c 2 -a 0 -i 0 -k AGT
h -t 10.000000000 -s 0 -d -1 -p tcp -e 40 -c 2 -a 0 -i 0 -k AGT
+ -t 10.000000000 -s 1 -d -1 -p tcp -e 40 -c 2 -a 0 -i 2 -k AGT 
- -t 10.000000000 -s 1 -d -1 -p tcp -e 40 -c 2 -a 0 -i 2 -k AGT
h -t 10.000000000 -s 1 -d -1 -p tcp -e 40 -c 2 -a 0 -i 2 -k AGT
+ -t 10.000000000 -s 2 -d -1 -p tcp -e 40 -c 2 -a 0 -i 4 -k AGT 
- -t 10.000000000 -s 2 -d -1 -p tcp -e 40 -c 2 -a 0 -i 4 -k AGT
h -t 10.000000000 -s 2 -d -1 -p tcp -e 40 -c 2 -a 0 -i 4 -k AGT
+ -t 10.000000000 -s 3 -d -1 -p tcp -e 40 -c 2 -a 0 -i 6 -k AGT 
- -t 10.000000000 -s 3 -d -1 -p tcp -e 40 -c 2 -a 0 -i 6 -k AGT
h -t 10.000000000 -s 3 -d -1 -p tcp -e 40 -c 2 -a 0 -i 6 -k AGT
+ -t 10.005530986 -s 3 -d -1 -p DSR -e 32 -c 2 -a 0 -i 7 -k RTR 
- -t 10.005530986 -s 3 -d -1 -p DSR -e 32 -c 2 -a 0 -i 7 -k RTR
h -t 10.005530986 -s 3 -d -1 -p DSR -e 32 -c 2 -a 0 -i 7 -k RTR
+ -t 10.005736682 -s 0 -d -1 -p DSR -e 32 -c 2 -a 0 -i 1 -k RTR 
- -t 10.005736682 -s 0 -d -1 -p DSR -e 32 -c 2 -a 0 -i 1 -k RTR
h -t 10.005736682 -s 0 -d -1 -p DSR -e 32 -c 2 -a 0 -i 1 -k RTR
+ -t 10.007181353 -s 2 -d -1 -p DSR -e 32 -c 2 -a 0 -i 5 -k RTR 
- -t 10.007181353 -s 2 -d -1 -p DSR -e 32 -c 2 -a 0 -i 5 -k RTR
h -t 10.007181353 -s 2 -d -1 -p DSR -e 32 -c 2 -a 0 -i 5 -k RTR
+ -t 10.009349847 -s 4 -d 3 -p DSR -e 44 -c 2 -a 0 -i 8 -k RTR 
- -t 10.009349847 -s 4 -d 3 -p DSR -e 44 -c 2 -a 0 -i 8 -k RTR
h -t 10.009349847 -s 4 -d 3 -p DSR -e 44 -c 2 -a 0 -i 8 -k RTR
+ -t 10.009444683 -s 1 -d -1 -p DSR -e 32 -c 2 -a 0 -i 3 -k RTR 
- -t 10.009444683 -s 1 -d -1 -p DSR -e 32 -c 2 -a 0 -i 3 -k RTR
h -t 10.009444683 -s 1 -d -1 -p DSR -e 32 -c 2 -a 0 -i 3 -k RTR
+ -t 10.013956815 -s 3 -d 4 -p tcp -e 76 -c 2 -a 0 -i 6 -k RTR 
- -t 10.013956815 -s 3 -d 4 -p tcp -e 76 -c 2 -a 0 -i 6 -k RTR
h -t 10.013956815 -s 3 -d 4 -p tcp -e 76 -c 2 -a 0 -i 6 -k RTR
r -t 10.016110516 -s 4 -d 4 -p tcp -e 40 -c 2 -a 0 -i 6 -k AGT
+ -t 10.016110516 -s 4 -d -1 -p ack -e 40 -c 2 -a 0 -i 10 -k AGT 
- -t 10.016110516 -s 4 -d -1 -p ack -e 40 -c 2 -a 0 -i 10 -k AGT
h -t 10.016110516 -s 4 -d -1 -p ack -e 40 -c 2 -a 0 -i 10 -k AGT
+ -t 10.016110516 -s 4 -d 3 -p ack -e 76 -c 2 -a 0 -i 10 -k RTR 
- -t 10.016110516 -s 4 -d 3 -p ack -e 76 -c 2 -a 0 -i 10 -k RTR
h -t 10.016110516 -s 4 -d 3 -p ack -e 76 -c 2 -a 0 -i 10 -k RTR
r -t 10.018564216 -s 3 -d 3 -p ack -e 40 -c 2 -a 0 -i 10 -k AGT
+ -t 10.018564216 -s 3 -d -1 -p tcp -e 1040 -c 2 -a 0 -i 13 -k AGT 
- -t 10.018564216 -s 3 -d -1 -p tcp -e 1040 -c 2 -a 0 -i 13 -k AGT