n -t * -s 0  -x 0 -y 0 -Z 0 -z 20  -v circle -c black
n -t * -s 1  -x 0 -y 0 -Z 0 -z 20  -v circle -c black
n -t * -s 2  -x 0 -y 0 -Z 0 -z 20  -v circle -c black
n -t * -s 3  -x 0 -y 0 -Z 0 -z 20  -v circle -c black
n -t * -s 4  -x 0 -y 0 -Z 0 -z 20  -v circle -c black
n -t * -s 5  -x 0 -y 0 -Z 0 -z 20  -v circle -c black
n -t * -s 6  -x 0 -y 0 -Z 0 -z 20  -v circle -c black
n -t * -s 7  -x 0 -y 0 -Z 0 -z 20  -v circle -c black
n -t * -s 8  -x 0 -y 0 -Z 0 -z 20  -v circle -c black
n -t * -s 9  -x 0 -y 0 -Z 0 -z 20  -v circle -c black
n -t * -s 10  -x 0 -y 0 -Z 0 -z 20  -v circle -c black
n -t * -s 11  -x 0 -y 0 -Z 0 -z 20  -v circle -c black
n -t * -s 12  -x 0 -y 0 -Z 0 -z 20  -v circle -c black
n -t * -s 13  -x 0 -y 0 -Z 0 -z 20  -v circle -c black
n -t * -s 14  -x 0 -y 0 -Z 0 -z 20  -v circle -c black
n -t * -s 15  -x 0 -y 0 -Z 0 -z 20  -v circle -c black
n -t * -s 16  -x 0 -y 0 -Z 0 -z 20  -v circle -c black
n -t * -s 17  -x 0 -y 0 -Z 0 -z 20  -v circle -c black
n -t * -s 18  -x 0 -y 0 -Z 0 -z 20  -v circle -c black
n -t * -s 19  -x 0 -y 0 -Z 0 -z 20  -v circle -c black
V -t * -v 1.0a5 -a 0
W -t * -x 2109 -y 3547
A -t * -n 1 -p 0 -o 0x7fffffff -c 30 -a 1
A -t * -h 1 -m 1073741823 -s 0
n -t 1.000000 -s 0 -x 1659.990000 -y 1178.510000 -U 0.000000 -V 0.000000 -T 0.000000
n -t 1.100000 -s 0 -x 1659.990000 -y 1178.510000 -U 0.000000 -V -0.250000 -T 0.120000
n -t 1.200000 -s 0 -x 1659.990000 -y 1178.485000 -U 0.000000 -V -0.490000 -T 0.112245
n -t 1.300000 -s 0 -x 1659.990000 -y 1178.436000 -U -0.097841 -V -0.743591 -T 0.102207
n -t 1.400000 -s 0 -x 1659.980216 -y 1178.361641 -U -0.002082 -V -0.979998 -T 0.103715
n -t 1.500000 -s 0 -x 1659.980008 -y 1178.263641 -U -0.097620 -V -1.206056 -T 0.102517
n -t 1.600000 -s 0 -x 1659.970246 -y 1178.143036 -U -0.097528 -V -1.456739 -T 0.105054
n -t 1.700000 -s 0 -x 1659.960493 -y 1177.997362 -U -0.103871 -V -1.656747 -T 0.101018
n -t 1.800000 -s 0 -x 1659.950106 -y 1177.831687 -U -0.100029 -V -1.897365 -T 0.101028
n -t 1.900000 -s 0 -x 1659.940103 -y 1177.641950 -U -0.099985 -V -2.097618 -T 0.101043
n -t 2.000000 -s 0 -x 1659.930104 -y 1177.432189 -U -0.098692 -V -2.267854 -T 0.102383
n -t 2.000000 -s 1 -x 1639.270000 -y 1075.910000 -U 0.000000 -V 0.000000 -T 0.000000
n -t 2.100000 -s 0 -x 1659.920235 -y 1177.205403 -U -0.101307 -V -2.527971 -T 0.101031
n -t 2.100000 -s 1 -x 1639.270000 -y 1075.910000 -U 0.250000 -V 0.000000 -T 0.080000
n -t 2.200000 -s 0 -x 1659.910104 -y 1176.952606 -U -0.200790 -V -2.722606 -T 0.100127
n -t 2.200000 -s 1 -x 1639.290000 -y 1075.910000 -U 0.490290 -V 0.098058 -T 0.101980
n -t 2.300000 -s 0 -x 1659.890025 -y 1176.680346 -U -0.200231 -V -2.903103 -T 0.100012
n -t 2.300000 -s 1 -x 1639.339029 -y 1075.919806 -U 0.749998 -V 0.001799 -T 0.107962
n -t 2.400000 -s 0 -x 1659.870002 -y 1176.390035 -U -0.099027 -V -3.168453 -T 0.101007
n -t 2.400000 -s 1 -x 1639.414029 -y 1075.919986 -U 0.970000 -V 0.000131 -T 0.109249
n -t 2.500000 -s 0 -x 1659.860100 -y 1176.073190 -U -0.197619 -V -3.374218 -T 0.101709
n -t 2.500000 -s 1 -x 1639.511029 -y 1075.919999 -U 1.180000 -V 0.000012 -T 0.100823
n -t 2.600000 -s 0 -x 1659.840338 -y 1175.735768 -U -0.202083 -V -3.634386 -T 0.100641
n -t 2.600000 -s 1 -x 1639.629029 -y 1075.920000 -U 1.410000 -V 0.000000 -T 0.107072
n -t 2.700000 -s 0 -x 1659.820130 -y 1175.372330 -U -0.197788 -V -3.854929 -T 0.101773
n -t 2.700000 -s 1 -x 1639.770029 -y 1075.920000 -U 1.610000 -V 0.000000 -T 0.105572
n -t 2.800000 -s 0 -x 1659.800351 -y 1174.986837 -U -0.204861 -V -3.994751 -T 0.099340
n -t 2.800000 -s 1 -x 1639.931029 -y 1075.920000 -U 1.800000 -V 0.000000 -T 0.104984
n -t 2.900000 -s 0 -x 1659.780000 -y 1174.590000 -U -0.294963 -V -4.129479 -T 0.101708
n -t 2.900000 -s 1 -x 1640.111029 -y 1075.920000 -U 2.020000 -V 0.000000 -T 0.103451
n -t 3.000000 -s 0 -x 1659.750504 -y 1174.177052 -U -0.202913 -V -4.325243 -T 0.101047
n -t 3.000000 -s 1 -x 1640.313029 -y 1075.920000 -U 2.250000 -V 0.000000 -T 0.100876
n -t 3.000000 -s 2 -x 1582.200000 -y 1240.450000 -U 0.000000 -V 0.000000 -T 0.000000
n -t 3.100000 -s 0 -x 1659.730212 -y 1173.744528 -U -0.297900 -V -4.580323 -T 0.101418
n -t 3.100000 -s 1 -x 1640.538029 -y 1075.920000 -U 2.470000 -V 0.000000 -T 0.102013
n -t 3.100000 -s 2 -x 1582.200000 -y 1240.450000 -U 0.000000 -V 0.250000 -T 0.080000
n -t 3.200000 -s 0 -x 1659.700422 -y 1173.286496 -U -0.202579 -V -4.825750 -T 0.100812
n -t 3.200000 -s 1 -x 1640.785029 -y 1075.920000 -U 2.610000 -V 0.000000 -T 0.101522
n -t 3.200000 -s 2 -x 1582.200000 -y 1240.470000 -U -0.100019 -V 0.500096 -T 0.099981
n -t 3.300000 -s 0 -x 1659.680165 -y 1172.803921 -U -0.298764 -V -4.991066 -T 0.100965
n -t 3.300000 -s 1 -x 1641.046029 -y 1075.920000 -U 2.820000 -V 0.000000 -T 0.100699
n -t 3.300000 -s 2 -x 1582.190000 -y 1240.520000 -U 0.000000 -V 0.760000 -T 0.105263
n -t 3.400000 -s 0 -x 1659.650288 -y 1172.304814 -U -0.301910 -V -5.231295 -T 0.100322
n -t 3.400000 -s 1 -x 1641.328029 -y 1075.920000 -U 3.030000 -V 0.000000 -T 0.102961
n -t 3.400000 -s 2 -x 1582.190000 -y 1240.596000 -U -0.102612 -V 0.964557 -T 0.097454
n -t 3.500000 -s 0 -x 1659.620097 -y 1171.781684 -U -0.297973 -V -5.461878 -T 0.101006
n -t 3.500000 -s 1 -x 1641.631029 -y 1075.920000 -U 3.260000 -V 0.000000 -T 0.100911
n -t 3.500000 -s 2 -x 1582.180000 -y 1240.690000 -U -0.093570 -V 1.216406 -T 0.106872
n -t 3.600000 -s 0 -x 1659.590300 -y 1171.235497 -U -0.302299 -V -5.641907 -T 0.100231
n -t 3.600000 -s 1 -x 1641.957029 -y 1075.920000 -U 3.490000 -V 0.000000 -T 0.101138
n -t 3.600000 -s 2 -x 1582.170643 -y 1240.811641 -U -0.101607 -V 1.416360 -T 0.104747
n -t 3.700000 -s 0 -x 1659.560070 -y 1170.671306 -U -0.299648 -V -5.892386 -T 0.100351
n -t 3.700000 -s 1 -x 1642.306029 -y 1075.920000 -U 3.660000 -V 0.000000 -T 0.102178
n -t 3.700000 -s 2 -x 1582.160482 -y 1240.953277 -U -0.101653 -V 1.616808 -T 0.103119
n -t 3.800000 -s 0 -x 1659.530105 -y 1170.082067 -U -0.397534 -V -6.066990 -T 0.100885
n -t 3.800000 -s 1 -x 1642.672029 -y 1075.920000 -U 3.828728 -V 0.098686 -T 0.101332
n -t 3.800000 -s 2 -x 1582.150317 -y 1241.114957 -U -0.196453 -V 1.789247 -T 0.103419
n -t 3.900000 -s 0 -x 1659.490352 -y 1169.475368 -U -0.301528 -V -6.212687 -T 0.100660
n -t 3.900000 -s 1 -x 1643.054902 -y 1075.929869 -U 4.050000 -V 0.001282 -T 0.102493
n -t 3.900000 -s 2 -x 1582.130672 -y 1241.293882 -U -0.103928 -V 2.007311 -T 0.102684
n -t 4.000000 -s 0 -x 1659.460199 -y 1168.854100 -U -0.299738 -V -6.392977 -T 0.100751
n -t 4.000000 -s 1 -x 1643.459902 -y 1075.929997 -U 4.290000 -V 0.000032 -T 0.100256
n -t 4.000000 -s 2 -x 1582.120279 -y 1241.494613 -U -0.202471 -V 2.150490 -T 0.100157
n -t 4.100000 -s 0 -x 1659.430225 -y 1168.214802 -U 0.297092 -V -6.633350 -T 0.100221
n -t 4.100000 -s 1 -x 1643.888902 -y 1075.930000 -U 4.470000 -V 0.000000 -T 0.100917
n -t 4.100000 -s 2 -x 1582.100032 -y 1241.709662 -U -0.199345 -V 2.391707 -T 0.100488
n -t 4.200000 -s 0 -x 1659.459934 -y 1167.551467 -U 0.805145 -V -6.852864 -T 0.099443
n -t 4.200000 -s 1 -x 1644.335902 -y 1075.930000 -U 4.690000 -V 0.000000 -T 0.101087
n -t 4.200000 -s 2 -x 1582.080097 -y 1241.948833 -U -0.100060 -V 2.588066 -T 0.100912
n -t 4.300000 -s 0 -x 1659.540000 -y 1166.870000 -U 0.896478 -V -6.972606 -T 0.100393
n -t 4.300000 -s 1 -x 1644.804902 -y 1075.930000 -U 4.940000 -V 0.000000 -T 0.100222
n -t 4.300000 -s 2 -x 1582.070091 -y 1242.207640 -U -0.292478 -V 2.744459 -T 0.102884
n -t 4.400000 -s 0 -x 1659.629648 -y 1166.172739 -U 0.901707 -V -7.113074 -T 0.100201
n -t 4.400000 -s 1 -x 1645.298902 -y 1075.930000 -U 5.160000 -V 0.000000 -T 0.100988
n -t 4.400000 -s 2 -x 1582.040843 -y 1242.482086 -U -0.204923 -V 2.732326 -T 0.101714
n -t 4.500000 -s 0 -x 1659.719818 -y 1165.461432 -U 0.894696 -V -7.355788 -T 0.100796
n -t 4.500000 -s 1 -x 1645.814902 -y 1075.930000 -U 5.349100 -V 0.098131 -T 0.101905
n -t 4.500000 -s 2 -x 1582.020351 -y 1242.755318 -U -0.203190 -V 2.742483 -T 0.100158
n -t 4.600000 -s 0 -x 1659.809288 -y 1164.725853 -U 0.997410 -V -7.584700 -T 0.100973
n -t 4.600000 -s 1 -x 1646.349812 -y 1075.939813 -U 5.600000 -V 0.001836 -T 0.101819
n -t 4.600000 -s 2 -x 1582.000032 -y 1243.029566 -U -0.197366 -V 2.762960 -T 0.101498
n -t 4.700000 -s 0 -x 1659.909029 -y 1163.967383 -U 1.007245 -V -7.754860 -T 0.100245
n -t 4.700000 -s 1 -x 1646.909812 -y 1075.939997 -U 5.820000 -V 0.000033 -T 0.101407
n -t 4.700000 -s 2 -x 1581.980296 -y 1243.305862 -U -0.202300 -V 2.732522 -T 0.100324
n -t 4.800000 -s 0 -x 1660.009754 -y 1163.191897 -U 0.998571 -V -7.987826 -T 0.100390
n -t 4.800000 -s 1 -x 1647.491812 -y 1075.940000 -U 5.990000 -V 0.000000 -T 0.101534
n -t 4.800000 -s 2 -x 1581.960066 -y 1243.579115 -U -0.193814 -V 2.713086 -T 0.103530
n -t 4.900000 -s 0 -x 1660.109611 -y 1162.393115 -U 0.996371 -V -8.169464 -T 0.100755
n -t 4.900000 -s 1 -x 1648.090812 -y 1075.940000 -U 6.200000 -V 0.000000 -T 0.101482
n -t 4.900000 -s 2 -x 1581.940684 -y 1243.850423 -U -0.199949 -V 2.702614 -T 0.103447
n -t 5.000000 -s 0 -x 1660.209248 -y 1161.576168 -U 1.002479 -V -8.319822 -T 0.100503
n -t 5.000000 -s 1 -x 1648.710812 -y 1075.940000 -U 6.380000 -V 0.000000 -T 0.100186
n -t 5.000000 -s 2 -x 1581.920689 -y 1244.120685 -U -0.201662 -V 2.722542 -T 0.102594
n -t 5.000000 -s 3 -x 1611.920000 -y 1677.240000 -U 0.000000 -V 0.000000 -T 0.000000
n -t 5.100000 -s 0 -x 1660.309496 -y 1160.744186 -U 1.102088 -V -8.519008 -T 0.100268
n -t 5.100000 -s 1 -x 1649.348812 -y 1075.940000 -U 6.509256 -V 0.098448 -T 0.101577
n -t 5.100000 -s 2 -x 1581.900523 -y 1244.392939 -U -0.205363 -V 2.772404 -T 0.099935
n -t 5.100000 -s 3 -x 1611.920000 -y 1677.240000 -U 0.000000 -V 0.260000 -T 0.076923
n -t 5.200000 -s 0 -x 1660.419704 -y 1159.892285 -U 1.096565 -V -8.771724 -T 0.100583
n -t 5.200000 -s 1 -x 1649.999737 -y 1075.949845 -U 6.660000 -V 0.001542 -T 0.100640
n -t 5.200000 -s 2 -x 1581.880000 -y 1244.670000 -U -0.199454 -V 2.692623 -T 0.100274
n -t 5.200000 -s 3 -x 1611.920000 -y 1677.260000 -U -0.096097 -V 0.480485 -T 0.104062
n -t 5.300000 -s 0 -x 1660.529361 -y 1159.015113 -U 1.194346 -V -8.960755 -T 0.101009
n -t 5.300000 -s 1 -x 1650.665737 -y 1075.949999 -U 6.870000 -V 0.000010 -T 0.101057
n -t 5.300000 -s 2 -x 1581.860055 -y 1244.939262 -U -0.198715 -V 2.682650 -T 0.100922
n -t 5.300000 -s 3 -x 1611.910390 -y 1677.308048 -U -0.003524 -V 0.739992 -T 0.110747
n -t 5.400000 -s 0 -x 1660.648795 -y 1158.119037 -U 1.102747 -V -9.113526 -T 0.100843
n -t 5.400000 -s 1 -x 1651.352737 -y 1075.950000 -U 7.050000 -V 0.000000 -T 0.100321
n -t 5.400000 -s 2 -x 1581.840183 -y 1245.207527 -U -0.291769 -V 2.633889 -T 0.103449
n -t 5.400000 -s 3 -x 1611.910038 -y 1677.382048 -U -0.099904 -V 0.974894 -T 0.100475
n -t 5.500000 -s 0 -x 1660.759070 -y 1157.207685 -U 1.201048 -V -9.312872 -T 0.100687
n -t 5.500000 -s 1 -x 1652.057737 -y 1075.950000 -U 7.270000 -V 0.000000 -T 0.100724
n -t 5.500000 -s 2 -x 1581.811006 -y 1245.470916 -U -0.209360 -V 2.681840 -T 0.100335
n -t 5.500000 -s 3 -x 1611.900047 -y 1677.479537 -U -0.094447 -V 1.226369 -T 0.106382
n -t 5.600000 -s 0 -x 1660.879175 -y 1156.276397 -U 1.201984 -V -9.514375 -T 0.100521
n -t 5.600000 -s 1 -x 1652.784737 -y 1075.950000 -U 7.439330 -V 0.099822 -T 0.100179
n -t 5.600000 -s 2 -x 1581.790070 -y 1245.739100 -U -0.198011 -V 2.672675 -T 0.101359
n -t 5.600000 -s 3 -x 1611.890603 -y 1677.602174 -U -0.105165 -V 1.466233 -T 0.100820
n -t 5.700000 -s 0 -x 1660.999373 -y 1155.324960 -U 1.196807 -V -9.474711 -T 0.100790
n -t 5.700000 -s 1 -x 1653.528670 -y 1075.959982 -U 7.680000 -V 0.000178 -T 0.100434
n -t 5.700000 -s 2 -x 1581.770269 -y 1246.006368 -U -0.198715 -V 2.682650 -T 0.102001
n -t 5.700000 -s 3 -x 1611.880086 -y 1677.748797 -U -0.101157 -V 1.717023 -T 0.099709
n -t 5.800000 -s 0 -x 1661.119054 -y 1154.377489 -U 1.106852 -V -9.153321 -T 0.100236
n -t 5.800000 -s 1 -x 1654.296670 -y 1075.960000 -U 7.899372 -V 0.099573 -T 0.100429
n -t 5.800000 -s 2 -x 1581.750398 -y 1246.274633 -U -0.200931 -V 2.712568 -T 0.101515
n -t 5.800000 -s 3 -x 1611.870000 -y 1677.920000 -U -0.098876 -V 1.977530 -T 0.101136
n -t 5.900000 -s 0 -x 1661.229739 -y 1153.462157 -U 1.101450 -V -8.912194 -T 0.100105
n -t 5.900000 -s 1 -x 1655.086607 -y 1075.969957 -U 8.069385 -V 0.099631 -T 0.100800
n -t 5.900000 -s 2 -x 1581.730304 -y 1246.545890 -U -0.203129 -V 2.642203 -T 0.099958
n -t 5.900000 -s 3 -x 1611.860112 -y 1678.117753 -U -0.192872 -V 2.131291 -T 0.104278
n -t 6.000000 -s 0 -x 1661.339884 -y 1152.570937 -U 1.091286 -V -8.631286 -T 0.100905
n -t 6.000000 -s 1 -x 1655.893546 -y 1075.979920 -U 8.207578 -V 0.199413 -T 0.100694
n -t 6.000000 -s 2 -x 1581.710000 -y 1246.810000 -U -0.195217 -V 2.733037 -T 0.102450
n -t 6.000000 -s 3 -x 1611.840825 -y 1678.330882 -U -0.201290 -V 2.311251 -T 0.103458
n -t 6.000000 -s 4 -x 1793.540000 -y 1233.150000 -U 0.000000 -V 0.000000 -T 0.000000
n -t 6.100000 -s 0 -x 1661.449013 -y 1151.707809 -U 1.097885 -V -8.287596 -T 0.101092
n -t 6.100000 -s 1 -x 1656.714304 -y 1075.999862 -U 8.389397 -V 0.100574 -T 0.100805
n -t 6.100000 -s 2 -x 1581.690478 -y 1247.083304 -U -0.202234 -V 2.732527 -T 0.101260
n -t 6.100000 -s 3 -x 1611.820696 -y 1678.562007 -U -0.104801 -V 2.527828 -T 0.102061
n -t 6.100000 -s 4 -x 1793.540000 -y 1233.150000 -U -0.250000 -V 0.000000 -T 0.120000
n -t 6.200000 -s 0 -x 1661.558801 -y 1150.879049 -U 1.010188 -V -7.976285 -T 0.100178
n -t 6.200000 -s 1 -x 1657.553243 -y 1076.009919 -U 8.577698 -V 0.198728 -T 0.101048
n -t 6.200000 -s 2 -x 1581.670255 -y 1247.356556 -U -0.197441 -V 2.762954 -T 0.102587
n -t 6.200000 -s 3 -x 1611.810216 -y 1678.814790 -U -0.196335 -V 2.672799 -T 0.102967
n -t 6.200000 -s 4 -x 1793.515000 -y 1233.150000 -U -0.482096 -V -0.087654 -T 0.114085
n -t 6.300000 -s 0 -x 1661.659820 -y 1150.081421 -U 1.681717 -V -7.524356 -T 0.101194
n -t 6.300000 -s 1 -x 1658.411013 -y 1076.029792 -U 8.719412 -V 0.101264 -T 0.100808
n -t 6.300000 -s 2 -x 1581.650511 -y 1247.632852 -U -0.200011 -V 2.702609 -T 0.102548
n -t 6.300000 -s 3 -x 1611.790583 -y 1679.082070 -U -0.202627 -V 2.933009 -T 0.101578
n -t 6.300000 -s 4 -x 1793.466790 -y 1233.141235 -U -0.719907 -V -0.011574 -T 0.106667
n -t 6.400000 -s 0 -x 1661.827992 -y 1149.328985 -U 1.607564 -V -7.233522 -T 0.100779
n -t 6.400000 -s 1 -x 1659.282954 -y 1076.039918 -U 8.907768 -V 0.199415 -T 0.100704
n -t 6.400000 -s 2 -x 1581.630510 -y 1247.903113 -U -0.203814 -V 2.652180 -T 0.100629
n -t 6.400000 -s 3 -x 1611.770320 -y 1679.375371 -U -0.295720 -V 3.166220 -T 0.102529
n -t 6.400000 -s 4 -x 1793.394800 -y 1233.140077 -U -0.954622 -V -0.101476 -T 0.099306
n -t 6.500000 -s 0 -x 1661.988748 -y 1148.605633 -U 1.612342 -V -6.955570 -T 0.100011
n -t 6.500000 -s 1 -x 1660.173731 -y 1076.059860 -U 9.107800 -V 0.200197 -T 0.100603
n -t 6.500000 -s 2 -x 1581.610128 -y 1248.168331 -U -0.195304 -V 2.733031 -T 0.103061
n -t 6.500000 -s 3 -x 1611.740748 -y 1679.691993 -U -0.204726 -V 3.433903 -T 0.101345
n -t 6.500000 -s 4 -x 1793.300000 -y 1233.130000 -U -1.180000 -V 0.000000 -T 0.101695
n -t 6.600000 -s 0 -x 1662.149982 -y 1147.910076 -U 1.494357 -V -6.674766 -T 0.100389
n -t 6.600000 -s 1 -x 1661.084511 -y 1076.079879 -U 9.367879 -V 0.199355 -T 0.100929
n -t 6.600000 -s 2 -x 1581.590598 -y 1248.441634 -U -0.200719 -V 2.712584 -T 0.102620
n -t 6.600000 -s 3 -x 1611.720275 -y 1680.035383 -U -0.296239 -V 3.567722 -T 0.102199
n -t 6.600000 -s 4 -x 1793.182000 -y 1233.130000 -U -1.406517 -V -0.099050 -T 0.100959
n -t 6.700000 -s 0 -x 1662.299418 -y 1147.242599 -U 1.499644 -V -6.499228 -T 0.100412
n -t 6.700000 -s 1 -x 1662.021299 -y 1076.099815 -U 9.519463 -V 0.101134 -T 0.100710
n -t 6.700000 -s 2 -x 1581.570526 -y 1248.712892 -U -0.204573 -V 2.662151 -T 0.100335
n -t 6.700000 -s 3 -x 1611.690651 -y 1680.392155 -U -0.201519 -V 3.784639 -T 0.102479
n -t 6.700000 -s 4 -x 1793.041348 -y 1233.120095 -U -1.586897 -V -0.099286 -T 0.101675
n -t 6.800000 -s 0 -x 1662.449382 -y 1146.592677 -U 1.396579 -V -6.184268 -T 0.100687
n -t 6.800000 -s 1 -x 1662.973245 -y 1076.109928 -U 9.657919 -V 0.200518 -T 0.100100
n -t 6.800000 -s 2 -x 1581.550069 -y 1248.979107 -U -0.198000 -V 2.672676 -T 0.101356
n -t 6.800000 -s 3 -x 1611.670499 -y 1680.770619 -U -0.303819 -V 3.978416 -T 0.100387
n -t 6.800000 -s 4 -x 1792.882659 -y 1233.110166 -U -1.767265 -V -0.098362 -T 0.103357
n -t 6.900000 -s 0 -x 1662.589040 -y 1145.974250 -U 1.310654 -V -5.947292 -T 0.099919
n -t 6.900000 -s 1 -x 1663.939037 -y 1076.129980 -U 9.887982 -V 0.199763 -T 0.100219
n -t 6.900000 -s 2 -x 1581.530269 -y 1249.246375 -U -0.303462 -V 2.743266 -T 0.099744
n -t 6.900000 -s 3 -x 1611.640118 -y 1681.168461 -U -0.298600 -V 4.179347 -T 0.100862
n -t 6.900000 -s 4 -x 1792.705932 -y 1233.100330 -U -1.997488 -V -0.100200 -T 0.103096
n -t 7.000000 -s 0 -x 1662.720000 -y 1145.380000 -U 1.283019 -V -5.625545 -T 0.101324
n -t 7.000000 -s 1 -x 1664.927836 -y 1076.149956 -U 10.088022 -V 0.199771 -T 0.100333
n -t 7.000000 -s 2 -x 1581.500000 -y 1249.520000 -U -0.194504 -V 2.723062 -T 0.102825
n -t 7.000000 -s 3 -x 1611.610258 -y 1681.586395 -U -0.296019 -V 4.339916 -T 0.102215
n -t 7.000000 -s 4 -x 1792.506183 -y 1233.090310 -U -2.237676 -V -0.102001 -T 0.101080
n -t 7.000000 -s 5 -x 1622.040000 -y 1595.520000 -U 0.000000 -V 0.000000 -T 0.000000
n -t 7.100000 -s 0 -x 1662.848302 -y 1144.817445 -U 1.200035 -V -5.398224 -T 0.101412
n -t 7.100000 -s 1 -x 1665.936638 -y 1076.169933 -U 1.331429 -V 10.253921 -T 0.092654
n -t 7.100000 -s 2 -x 1581.480550 -y 1249.792306 -U -0.205127 -V 2.672138 -T 0.100180
n -t 7.100000 -s 3 -x 1611.580656 -y 1682.020387 -U -0.305469 -V 4.579824 -T 0.100356
n -t 7.100000 -s 4 -x 1792.282416 -y 1233.080110 -U -2.482135 -V -0.197753 -T 0.101693
n -t 7.100000 -s 5 -x 1622.040000 -y 1595.520000 -U 0.246658 -V -0.082219 -T 0.121626
n -t 7.200000 -s 0 -x 1662.968305 -y 1144.277623 -U 1.195650 -V -5.183900 -T 0.101781
n -t 7.200000 -s 1 -x 1666.060000 -y 1077.120000 -U 0.498031 -V 10.558261 -T 0.100395
n -t 7.200000 -s 2 -x 1581.460037 -y 1250.059520 -U -0.196511 -V 2.652731 -T 0.101963
n -t 7.200000 -s 3 -x 1611.550109 -y 1682.478369 -U -0.399181 -V 4.793407 -T 0.100478
n -t 7.200000 -s 4 -x 1792.034202 -y 1233.060335 -U -2.708077 -V -0.102069 -T 0.101253
n -t 7.200000 -s 5 -x 1622.064666 -y 1595.511778 -U 0.483934 -V -0.125729 -T 0.093679
n -t 7.300000 -s 0 -x 1663.087870 -y 1143.759233 -U 1.104486 -V -4.917490 -T 0.101522
n -t 7.300000 -s 1 -x 1666.109803 -y 1078.175826 -U 0.499964 -V 10.798432 -T 0.100401
n -t 7.300000 -s 2 -x 1581.440386 -y 1250.324793 -U -0.203147 -V 2.742486 -T 0.100349
n -t 7.300000 -s 3 -x 1611.510191 -y 1682.957710 -U -0.296989 -V 4.941083 -T 0.101656
n -t 7.300000 -s 4 -x 1791.763394 -y 1233.050128 -U -2.742577 -V -0.201915 -T 0.099685
n -t 7.300000 -s 5 -x 1622.110000 -y 1595.500000 -U 0.692297 -V -0.197799 -T 0.101113
n -t 7.400000 -s 0 -x 1663.198319 -y 1143.267484 -U 0.995584 -V -4.675170 -T 0.102132
n -t 7.400000 -s 1 -x 1666.159799 -y 1079.255669 -U 0.402347 -V 10.952612 -T 0.099915
n -t 7.400000 -s 2 -x 1581.420071 -y 1250.599042 -U -0.194529 -V 2.723061 -T 0.103177
n -t 7.400000 -s 3 -x 1611.480492 -y 1683.451818 -U -0.405104 -V 5.184196 -T 0.099954
n -t 7.400000 -s 4 -x 1791.490000 -y 1233.030000 -U -2.702596 -V -0.200192 -T 0.099904
n -t 7.400000 -s 5 -x 1622.179230 -y 1595.480220 -U 0.938698 -V -0.281507 -T 0.107351
n -t 7.500000 -s 0 -x 1663.297877 -y 1142.799967 -U 1.000398 -V -4.407902 -T 0.102082
n -t 7.500000 -s 1 -x 1666.200000 -y 1080.350000 -U 0.496381 -V 11.118926 -T 0.100729
n -t 7.500000 -s 2 -x 1581.400618 -y 1250.871348 -U -0.205843 -V 2.682113 -T 0.100164
n -t 7.500000 -s 3 -x 1611.440000 -y 1683.970000 -U -0.394594 -V 5.425670 -T 0.101370
n -t 7.500000 -s 4 -x 1791.220000 -y 1233.010000 -U -2.718267 -V -0.097081 -T 0.103007
n -t 7.500000 -s 5 -x 1622.273100 -y 1595.452069 -U 1.202205 -V -0.303813 -T 0.105556
n -t 7.600000 -s 0 -x 1663.397917 -y 1142.359177 -U 0.997339 -V -4.193020 -T 0.102355
n -t 7.600000 -s 1 -x 1666.249638 -y 1081.461893 -U 0.503080 -V 11.368875 -T 0.100107
n -t 7.600000 -s 2 -x 1581.380034 -y 1251.139559 -U -0.193815 -V 2.713086 -T 0.103366
n -t 7.600000 -s 3 -x 1611.400541 -y 1684.512567 -U -0.399078 -V 5.585762 -T 0.101586
n -t 7.600000 -s 4 -x 1790.948173 -y 1233.000292 -U -2.672361 -V -0.202210 -T 0.100351
n -t 7.600000 -s 5 -x 1622.393320 -y 1595.421688 -U 1.417303 -V -0.306188 -T 0.103492
n -t 7.700000 -s 0 -x 1663.497651 -y 1141.939875 -U 0.907773 -V -4.029001 -T 0.101731
n -t 7.700000 -s 1 -x 1666.299946 -y 1082.598780 -U 0.499972 -V 11.499136 -T 0.100114
n -t 7.700000 -s 2 -x 1581.360652 -y 1251.410868 -U -0.201436 -V 2.722558 -T 0.102526
n -t 7.700000 -s 3 -x 1611.360633 -y 1685.071143 -U -0.402021 -V 5.826146 -T 0.101071
n -t 7.700000 -s 4 -x 1790.680937 -y 1232.980071 -U -2.708130 -V -0.100663 -T 0.100046
n -t 7.700000 -s 5 -x 1622.535050 -y 1595.391069 -U 1.659341 -V -0.413144 -T 0.099407
n -t 7.800000 -s 0 -x 1663.588429 -y 1141.536975 -U 0.796164 -V -3.776999 -T 0.102456
n -t 7.800000 -s 1 -x 1666.349943 -y 1083.748694 -U 0.601159 -V 11.724598 -T 0.099902
n -t 7.800000 -s 2 -x 1581.340509 -y 1251.683124 -U -0.200187 -V 2.702596 -T 0.102448
n -t 7.800000 -s 3 -x 1611.320431 -y 1685.653758 -U -0.397927 -V 5.966746 -T 0.101603
n -t 7.800000 -s 4 -x 1790.410124 -y 1232.970005 -U -2.652736 -V -0.196454 -T 0.101829
n -t 7.800000 -s 5 -x 1622.700000 -y 1595.350000 -U 1.885795 -V -0.496262 -T 0.100753
n -t 7.900000 -s 0 -x 1663.668045 -y 1141.159275 -U 0.800638 -V -3.509840 -T 0.102362
n -t 7.900000 -s 1 -x 1666.410000 -y 1084.920000 -U 0.498318 -V 11.959623 -T 0.100338
n -t 7.900000 -s 2 -x 1581.320490 -y 1251.953383 -U -0.203886 -V 2.752459 -T 0.100498
n -t 7.900000 -s 3 -x 1611.280638 -y 1686.250432 -U -0.405792 -V 6.186706 -T 0.100145
n -t 7.900000 -s 4 -x 1790.144851 -y 1232.950359 -U -2.748049 -V -0.103575 -T 0.100017
n -t 7.900000 -s 5 -x 1622.888580 -y 1595.300374 -U 2.076975 -V -0.593107 -T 0.101793
n -t 8.000000 -s 0 -x 1663.748109 -y 1140.808291 -U 0.796508 -V -3.387621 -T 0.102813
n -t 8.000000 -s 1 -x 1666.459832 -y 1086.115962 -U 0.500826 -V 12.119656 -T 0.100171
n -t 8.000000 -s 2 -x 1581.300102 -y 1252.228629 -U -0.197237 -V 2.662705 -T 0.101916
n -t 8.000000 -s 3 -x 1611.240059 -y 1686.869103 -U -0.400496 -V 6.407496 -T 0.100023
n -t 8.000000 -s 4 -x 1789.870046 -y 1232.940002 -U -2.652733 -V -0.196482 -T 0.101799
n -t 8.000000 -s 5 -x 1623.096277 -y 1595.241063 -U 2.302708 -V -0.601612 -T 0.101499
n -t 8.000000 -s 6 -x 776.930000 -y 787.610000 -U 0.000000 -V 0.000000 -T 0.000000
n -t 8.100000 -s 0 -x 1663.827760 -y 1140.469529 -U 0.702373 -V -3.203915 -T 0.102852
n -t 8.100000 -s 1 -x 1666.509914 -y 1087.327928 -U 0.599621 -V 12.295388 -T 0.100206
n -t 8.100000 -s 2 -x 1581.280378 -y 1252.494900 -U -0.197484 -V 2.762951 -T 0.103187
n -t 8.100000 -s 3 -x 1611.200009 -y 1687.509853 -U -0.397505 -V 6.658145 -T 0.100651
n -t 8.100000 -s 4 -x 1789.604772 -y 1232.920353 -U -2.778164 -V -0.101006 -T 0.102504
n -t 8.100000 -s 5 -x 1623.326548 -y 1595.180902 -U 2.450255 -V -0.588771 -T 0.103439
n -t 8.100000 -s 6 -x 776.930000 -y 787.610000 -U 0.183848 -V 0.183848 -T 0.108786
n -t 8.200000 -s 0 -x 1663.897997 -y 1140.149137 -U 0.696412 -V -2.989968 -T 0.103391
n -t 8.200000 -s 1 -x 1666.569876 -y 1088.557467 -U 0.497456 -V 12.530129 -T 0.100760
n -t 8.200000 -s 2 -x 1581.260629 -y 1252.771195 -U -0.302490 -V 2.753434 -T 0.101257
n -t 8.200000 -s 3 -x 1611.160259 -y 1688.175667 -U -0.401109 -V 6.818212 -T 0.100368
n -t 8.200000 -s 4 -x 1789.326956 -y 1232.910253 -U -2.702783 -V -0.197646 -T 0.102471
n -t 8.200000 -s 5 -x 1623.571573 -y 1595.122025 -U 2.630684 -V -0.607867 -T 0.102037
n -t 8.200000 -s 6 -x 776.948385 -y 787.628385 -U 0.406101 -V 0.308516 -T 0.102475
n -t 8.300000 -s 0 -x 1663.967638 -y 1139.850140 -U 0.600994 -V -2.796141 -T 0.103765
n -t 8.300000 -s 1 -x 1666.619622 -y 1089.810480 -U 0.603801 -V 12.695650 -T 0.099996
n -t 8.300000 -s 2 -x 1581.230380 -y 1253.046538 -U -0.199180 -V 2.672588 -T 0.102321
n -t 8.300000 -s 3 -x 1611.120148 -y 1688.857488 -U -0.500552 -V 7.012157 -T 0.100185
n -t 8.300000 -s 4 -x 1789.056678 -y 1232.890488 -U -2.728041 -V -0.103415 -T 0.101420
n -t 8.300000 -s 5 -x 1623.834642 -y 1595.061238 -U 2.808410 -V -0.799521 -T 0.101609
n -t 8.300000 -s 6 -x 776.988995 -y 787.659236 -U 0.623596 -V 0.416687 -T 0.097828
n -t 8.400000 -s 0 -x 1664.027738 -y 1139.570526 -U 0.607824 -V -2.640956 -T 0.102435
n -t 8.400000 -s 1 -x 1666.680000 -y 1091.080000 -U 0.497709 -V 12.940432 -T 0.100460
n -t 8.400000 -s 2 -x 1581.210462 -y 1253.313797 -U -0.203175 -V 2.742484 -T 0.100713
n -t 8.400000 -s 3 -x 1611.070093 -y 1689.558704 -U -0.396330 -V 7.229144 -T 0.101159
n -t 8.400000 -s 4 -x 1788.783874 -y 1232.880147 -U -2.692724 -V -0.198084 -T 0.101709
n -t 8.400000 -s 5 -x 1624.115483 -y 1594.981286 -U 3.072080 -V -0.696294 -T 0.102379
n -t 8.400000 -s 6 -x 777.050000 -y 787.700000 -U 0.776000 -V 0.582000 -T 0.103093
n -t 8.500000 -s 0 -x 1664.088520 -y 1139.306431 -U 0.500997 -V -2.398229 -T 0.102755
n -t 8.500000 -s 1 -x 1666.729771 -y 1092.374043 -U 0.599852 -V 13.106280 -T 0.100407
n -t 8.500000 -s 2 -x 1581.190145 -y 1253.588045 -U -0.197405 -V 2.762957 -T 0.102048
n -t 8.500000 -s 3 -x 1611.030460 -y 1690.281618 -U -0.503843 -V 7.372804 -T 0.100149
n -t 8.500000 -s 4 -x 1788.514601 -y 1232.860338 -U -2.672679 -V -0.197953 -T 0.102744
n -t 8.500000 -s 5 -x 1624.422691 -y 1594.911657 -U 3.281027 -V -0.891550 -T 0.102806
n -t 8.500000 -s 6 -x 777.127600 -y 787.758200 -U 0.957974 -V 0.671704 -T 0.106892
n -t 8.600000 -s 0 -x 1664.138620 -y 1139.066608 -U 0.506375 -V -2.233312 -T 0.101467
n -t 8.600000 -s 1 -x 1666.789756 -y 1093.684671 -U 0.598524 -V 13.266506 -T 0.100654
n -t 8.600000 -s 2 -x 1581.170404 -y 1253.864341 -U -0.197833 -V 2.672688 -T 0.103139
n -t 8.600000 -s 3 -x 1610.980075 -y 1691.018899 -U -0.495010 -V 7.523733 -T 0.101160
n -t 8.600000 -s 4 -x 1788.247333 -y 1232.840543 -U -2.777993 -V -0.105609 -T 0.099832
n -t 8.600000 -s 5 -x 1624.750793 -y 1594.822502 -U 3.470313 -V -0.919255 -T 0.100627
n -t 8.600000 -s 6 -x 777.223397 -y 787.825370 -U 1.133027 -V 0.822345 -T 0.102913
n -t 8.700000 -s 0 -x 1664.189257 -y 1138.843277 -U 0.489767 -V -2.155047 -T 0.103606
n -t 8.700000 -s 1 -x 1666.849608 -y 1095.011322 -U 0.600354 -V 13.506664 -T 0.100593
n -t 8.700000 -s 2 -x 1581.150621 -y 1254.131610 -U -0.200188 -V 2.702596 -T 0.103008
n -t 8.700000 -s 3 -x 1610.930574 -y 1691.771272 -U -0.504830 -V 7.673412 -T 0.100181
n -t 8.700000 -s 4 -x 1787.970000 -y 1232.830000 -U -2.692623 -V -0.199454 -T 0.100274
n -t 8.700000 -s 5 -x 1625.097825 -y 1594.730576 -U 3.618555 -V -0.904962 -T 0.100088
n -t 8.700000 -s 6 -x 777.336700 -y 787.907605 -U 1.284718 -V 0.986863 -T 0.103758
n -t 8.800000 -s 0 -x 1664.238234 -y 1138.627772 -U 0.506434 -V -1.934819 -T 0.102217
n -t 8.800000 -s 1 -x 1666.909644 -y 1096.361988 -U 0.604292 -V 13.696676 -T 0.099879
n -t 8.800000 -s 2 -x 1581.130602 -y 1254.401869 -U -0.201670 -V 2.722541 -T 0.102158
n -t 8.800000 -s 3 -x 1610.880091 -y 1692.538613 -U -0.499668 -V 7.894202 -T 0.100249
n -t 8.800000 -s 4 -x 1787.700738 -y 1232.810055 -U -2.658168 -V -0.098719 -T 0.101851
n -t 8.800000 -s 5 -x 1625.459680 -y 1594.640080 -U 3.732918 -V -0.982306 -T 0.101883
n -t 8.800000 -s 6 -x 777.465172 -y 788.006291 -U 1.499137 -V 1.100995 -T 0.103278
n -t 8.900000 -s 0 -x 1664.288877 -y 1138.434290 -U 0.594979 -V -1.793906 -T 0.102731
n -t 8.900000 -s 1 -x 1666.970000 -y 1097.730000 -U 0.597286 -V 13.837115 -T 0.100454
n -t 8.900000 -s 2 -x 1581.110435 -y 1254.674124 -U -0.203080 -V 2.642207 -T 0.100627
n -t 8.900000 -s 3 -x 1610.830124 -y 1693.328034 -U -0.496000 -V 8.034705 -T 0.101057
n -t 8.900000 -s 4 -x 1787.434921 -y 1232.800183 -U -2.672807 -V -0.196219 -T 0.102859
n -t 8.900000 -s 5 -x 1625.832972 -y 1594.541849 -U 3.922976 -V -1.006359 -T 0.101206
n -t 8.900000 -s 6 -x 777.615085 -y 788.116391 -U 1.640366 -V 1.229512 -T 0.100535
n -t 9.000000 -s 0 -x 1664.348375 -y 1138.254899 -U 1.213917 -V -1.246598 -T 0.100192
n -t 9.000000 -s 1 -x 1667.029729 -y 1099.113711 -U 0.600717 -V 13.816948 -T 0.100332
n -t 9.000000 -s 2 -x 1581.090127 -y 1254.938344 -U -0.196543 -V 2.652729 -T 0.102406
n -t 9.000000 -s 3 -x 1610.780524 -y 1694.131504 -U -0.505212 -V 8.184422 -T 0.100007
n -t 9.000000 -s 4 -x 1787.167640 -y 1232.780561 -U -2.738020 -V -0.104149 -T 0.101402
n -t 9.000000 -s 5 -x 1626.225270 -y 1594.441213 -U 4.182873 -V -0.996781 -T 0.101540
n -t 9.000000 -s 6 -x 777.779122 -y 788.239342 -U 1.859627 -V 1.370360 -T 0.102643
n -t 9.100000 -s 0 -x 1664.469767 -y 1138.130240 -U 1.238287 -V -1.135361 -T 0.097096
n -t 9.100000 -s 1 -x 1667.089800 -y 1100.495406 -U 0.599025 -V 13.877077 -T 0.100496
n -t 9.100000 -s 2 -x 1581.070473 -y 1255.203617 -U -0.203067 -V 2.642208 -T 0.100818
n -t 9.100000 -s 3 -x 1610.730003 -y 1694.949946 -U -0.594908 -V 8.328781 -T 0.100862
n -t 9.100000 -s 4 -x 1786.893838 -y 1232.770146 -U -2.753074 -V -0.195405 -T 0.103099
n -t 9.100000 -s 5 -x 1626.643557 -y 1594.341535 -U 4.390229 -V -1.195154 -T 0.101690
n -t 9.100000 -s 6 -x 777.965085 -y 788.376378 -U 2.016304 -V 1.511594 -T 0.101629
n -t 9.200000 -s 0 -x 1664.590000 -y 1138.020000 -U 1.088944 -V -1.088944 -T 0.101015
n -t 9.200000 -s 1 -x 1667.149703 -y 1101.883114 -U 0.602887 -V 13.866900 -T 0.100014
n -t 9.200000 -s 2 -x 1581.050166 -y 1255.467838 -U -0.200252 -V 2.702591 -T 0.100704
n -t 9.200000 -s 3 -x 1610.670513 -y 1695.782824 -U -0.501206 -V 8.505245 -T 0.100782
n -t 9.200000 -s 4 -x 1786.618531 -y 1232.750605 -U -2.687904 -V -0.106157 -T 0.099903
n -t 9.200000 -s 5 -x 1627.082580 -y 1594.222020 -U 4.555387 -V -1.115592 -T 0.100413
n -t 9.200000 -s 6 -x 778.166715 -y 788.527537 -U 2.256684 -V 1.571584 -T 0.103375
n -t 9.300000 -s 0 -x 1664.698894 -y 1137.911106 -U 1.025188 -V -0.923791 -T 0.098621
n -t 9.300000 -s 1 -x 1667.209991 -y 1103.269804 -U 0.598131 -V 13.757003 -T 0.100327
n -t 9.300000 -s 2 -x 1581.030141 -y 1255.738097 -U -0.199454 -V 2.692623 -T 0.100981
n -t 9.300000 -s 3 -x 1610.620392 -y 1696.633349 -U -0.600669 -V 8.719335 -T 0.100541