n -t * -s 0  -x 0 -y 0 -Z 0 -z 20  -v circle -c black
n -t * -s 1  -x 0 -y 0 -Z 0 -z 20  -v circle -c black
n -t * -s 2  -x 0 -y 0 -Z 0 -z 20  -v circle -c black
n -t * -s 3  -x 0 -y 0 -Z 0 -z 20  -v circle -c black
n -t * -s 4  -x 0 -y 0 -Z 0 -z 20  -v circle -c black
n -t * -s 5  -x 0 -y 0 -Z 0 -z 20  -v circle -c black
n -t * -s 6  -x 0 -y 0 -Z 0 -z 20  -v circle -c black
n -t * -s 7  -x 0 -y 0 -Z 0 -z 20  -v circle -c black
n -t * -s 8  -x 0 -y 0 -Z 0 -z 20  -v circle -c black
n -t * -s 9  -x 0 -y 0 -Z 0 -z 20  -v circle -c black
n -t * -s 10  -x 0 -y 0 -Z 0 -z 20  -v circle -c black
n -t * -s 11  -x 0 -y 0 -Z 0 -z 20  -v circle -c black
n -t * -s 12  -x 0 -y 0 -Z 0 -z 20  -v circle -c black
n -t * -s 13  -x 0 -y 0 -Z 0 -z 20  -v circle -c black
n -t * -s 14  -x 0 -y 0 -Z 0 -z 20  -v circle -c black
n -t * -s 15  -x 0 -y 0 -Z 0 -z 20  -v circle -c black
n -t * -s 16  -x 0 -y 0 -Z 0 -z 20  -v circle -c black
n -t * -s 17  -x 0 -y 0 -Z 0 -z 20  -v circle -c black
n -t * -s 18  -x 0 -y 0 -Z 0 -z 20  -v circle -c black
n -t * -s 19  -x 0 -y 0 -Z 0 -z 20  -v circle -c black
n -t * -s 20  -x 0 -y 0 -Z 0 -z 20  -v circle -c black
n -t * -s 21  -x 0 -y 0 -Z 0 -z 20  -v circle -c black
n -t * -s 22  -x 0 -y 0 -Z 0 -z 20  -v circle -c black
n -t * -s 23  -x 0 -y 0 -Z 0 -z 20  -v circle -c black
n -t * -s 24  -x 0 -y 0 -Z 0 -z 20  -v circle -c black
n -t * -s 25  -x 0 -y 0 -Z 0 -z 20  -v circle -c black
n -t * -s 26  -x 0 -y 0 -Z 0 -z 20  -v circle -c black
n -t * -s 27  -x 0 -y 0 -Z 0 -z 20  -v circle -c black
n -t * -s 28  -x 0 -y 0 -Z 0 -z 20  -v circle -c black
n -t * -s 29  -x 0 -y 0 -Z 0 -z 20  -v circle -c black
n -t * -s 30  -x 0 -y 0 -Z 0 -z 20  -v circle -c black
n -t * -s 31  -x 0 -y 0 -Z 0 -z 20  -v circle -c black
n -t * -s 32  -x 0 -y 0 -Z 0 -z 20  -v circle -c black
n -t * -s 33  -x 0 -y 0 -Z 0 -z 20  -v circle -c black
n -t * -s 34  -x 0 -y 0 -Z 0 -z 20  -v circle -c black
n -t * -s 35  -x 0 -y 0 -Z 0 -z 20  -v circle -c black
n -t * -s 36  -x 0 -y 0 -Z 0 -z 20  -v circle -c black
n -t * -s 37  -x 0 -y 0 -Z 0 -z 20  -v circle -c black
n -t * -s 38  -x 0 -y 0 -Z 0 -z 20  -v circle -c black
n -t * -s 39  -x 0 -y 0 -Z 0 -z 20  -v circle -c black
n -t * -s 40  -x 0 -y 0 -Z 0 -z 20  -v circle -c black
V -t * -v 1.0a5 -a 0
W -t * -x 2827 -y 3196
A -t * -n 1 -p 0 -o 0x7fffffff -c 30 -a 1
A -t * -h 1 -m 1073741823 -s 0
n -t 0.000000 -s 0 -x 1753.250000 -y 1432.360000 -U 0.000000 -V 0.000000 -T 0.000000
n -t 0.100000 -s 0 -x 1753.250000 -y 1432.360000 -U 0.250000 -V 0.000000 -T 0.080000
n -t 0.200000 -s 0 -x 1753.270000 -y 1432.360000 -U 0.454954 -V 0.181981 -T 0.109901
n -t 0.300000 -s 0 -x 1753.315495 -y 1432.378198 -U 0.740764 -V 0.117340 -T 0.100578
n -t 0.400000 -s 0 -x 1753.389572 -y 1432.389932 -U 0.938826 -V 0.281081 -T 0.106972
n -t 0.500000 -s 0 -x 1753.483454 -y 1432.418040 -U 1.166919 -V 0.319999 -T 0.099875
n -t 0.600000 -s 0 -x 1753.600000 -y 1432.450000 -U 1.410703 -V 0.376187 -T 0.106330
n -t 0.700000 -s 0 -x 1753.741070 -y 1432.487619 -U 1.610102 -V 0.403944 -T 0.104919
n -t 0.800000 -s 0 -x 1753.902081 -y 1432.528013 -U 1.831218 -V 0.506596 -T 0.102620
n -t 0.900000 -s 0 -x 1754.085202 -y 1432.578673 -U 2.037000 -V 0.510521 -T 0.100539
n -t 1.000000 -s 0 -x 1754.288902 -y 1432.629725 -U 2.213496 -V 0.503324 -T 0.099886
n -t 1.000000 -s 1 -x 2517.970000 -y 1799.360000 -U 0.000000 -V 0.000000 -T 0.000000
n -t 1.100000 -s 0 -x 1754.510000 -y 1432.680000 -U 2.436299 -V 0.682164 -T 0.102615
n -t 1.100000 -s 1 -x 2517.970000 -y 1799.360000 -U -0.223607 -V 0.111803 -T 0.089443
n -t 1.200000 -s 0 -x 1754.753630 -y 1432.748216 -U 2.635961 -V 0.710361 -T 0.101052
n -t 1.200000 -s 1 -x 2517.950000 -y 1799.370000 -U -0.353553 -V 0.353553 -T 0.113137
n -t 1.300000 -s 0 -x 1755.017226 -y 1432.819252 -U 2.822988 -V 0.706287 -T 0.100168
n -t 1.300000 -s 1 -x 2517.914645 -y 1799.405355 -U -0.617132 -V 0.426202 -T 0.104750
n -t 1.400000 -s 0 -x 1755.299525 -y 1432.889881 -U 3.069448 -V 0.792079 -T 0.101150
n -t 1.400000 -s 1 -x 2517.852931 -y 1799.447976 -U -0.738917 -V 0.628412 -T 0.098700
n -t 1.500000 -s 0 -x 1755.606470 -y 1432.969089 -U 3.284729 -V 0.796841 -T 0.101540
n -t 1.500000 -s 1 -x 2517.780000 -y 1799.510000 -U -0.921425 -V 0.737140 -T 0.108528
n -t 1.600000 -s 0 -x 1755.934942 -y 1433.048773 -U 3.525490 -V 0.905824 -T 0.100712
n -t 1.600000 -s 1 -x 2517.687857 -y 1799.583714 -U -1.091928 -V 0.892072 -T 0.107935
n -t 1.700000 -s 0 -x 1756.287491 -y 1433.139355 -U 3.726387 -V 1.006797 -T 0.099965
n -t 1.700000 -s 1 -x 2517.578665 -y 1799.672921 -U -1.237507 -V 1.029892 -T 0.103971
n -t 1.800000 -s 0 -x 1756.660000 -y 1433.240000 -U 3.874655 -V 0.993501 -T 0.100654
n -t 1.800000 -s 1 -x 2517.454914 -y 1799.775910 -U -1.414289 -V 1.113458 -T 0.102464
n -t 1.900000 -s 0 -x 1757.047466 -y 1433.339350 -U 3.991930 -V 1.097313 -T 0.100837
n -t 1.900000 -s 1 -x 2517.313485 -y 1799.887256 -U -1.568163 -V 1.273289 -T 0.104253
n -t 2.000000 -s 0 -x 1757.446659 -y 1433.449081 -U 4.211975 -V 1.004074 -T 0.100509
n -t 2.000000 -s 1 -x 2517.156669 -y 1800.014585 -U -1.737215 -V 1.429889 -T 0.101697
n -t 2.000000 -s 2 -x 1991.980000 -y 1467.660000 -U 0.000000 -V 0.000000 -T 0.000000
n -t 2.100000 -s 0 -x 1757.867856 -y 1433.549489 -U 4.428453 -V 1.207022 -T 0.099842
n -t 2.100000 -s 1 -x 2516.982947 -y 1800.157574 -U -1.974993 -V 1.483341 -T 0.102759
n -t 2.100000 -s 2 -x 1991.980000 -y 1467.660000 -U 0.000000 -V -0.250000 -T 0.120000
n -t 2.200000 -s 0 -x 1758.310000 -y 1433.670000 -U 4.679873 -V 1.194861 -T 0.100430
n -t 2.200000 -s 1 -x 2516.785448 -y 1800.305908 -U -1.991237 -V 1.687327 -T 0.103176
n -t 2.200000 -s 2 -x 1991.980000 -y 1467.635000 -U 0.091232 -V -0.501774 -T 0.109611
n -t 2.300000 -s 0 -x 1758.777987 -y 1433.789486 -U 4.856439 -V 1.189539 -T 0.101311
n -t 2.300000 -s 1 -x 2516.586324 -y 1800.474641 -U -2.229172 -V 1.727192 -T 0.101528
n -t 2.300000 -s 2 -x 1991.989123 -y 1467.584823 -U 0.008906 -V -0.759948 -T 0.098458
n -t 2.400000 -s 0 -x 1759.263631 -y 1433.908440 -U 5.046509 -V 1.410797 -T 0.100340
n -t 2.400000 -s 1 -x 2516.363407 -y 1800.647360 -U -2.375932 -V 1.880385 -T 0.102447
n -t 2.400000 -s 2 -x 1991.990000 -y 1467.510000 -U 0.096519 -V -0.965186 -T 0.103607
n -t 2.500000 -s 0 -x 1759.768282 -y 1434.049520 -U 5.312387 -V 1.303627 -T 0.100090
n -t 2.500000 -s 1 -x 2516.125814 -y 1800.835399 -U -2.497555 -V 2.095189 -T 0.102426
n -t 2.500000 -s 2 -x 1991.999652 -y 1467.413481 -U 0.003440 -V -1.219995 -T 0.101215
n -t 2.600000 -s 0 -x 1760.299521 -y 1434.179882 -U 5.475409 -V 1.393697 -T 0.100537
n -t 2.600000 -s 1 -x 2515.876058 -y 1801.044918 -U -2.704870 -V 2.205398 -T 0.102060
n -t 2.600000 -s 2 -x 1991.999996 -y 1467.291482 -U 0.100158 -V -1.416463 -T 0.099884
n -t 2.700000 -s 0 -x 1760.847062 -y 1434.319252 -U 5.705802 -V 1.501275 -T 0.100413
n -t 2.700000 -s 1 -x 2515.605571 -y 1801.265457 -U -2.867016 -V 2.275042 -T 0.103094
n -t 2.700000 -s 2 -x 1992.010000 -y 1467.150000 -U 0.095130 -V -1.617204 -T 0.105120
n -t 2.800000 -s 0 -x 1761.417642 -y 1434.469380 -U 5.892495 -V 1.498300 -T 0.100528
n -t 2.800000 -s 1 -x 2515.318870 -y 1801.492962 -U -2.952076 -V 2.440113 -T 0.101241
n -t 2.800000 -s 2 -x 1992.019513 -y 1466.988280 -U 0.100104 -V -1.797214 -T 0.104762
n -t 2.900000 -s 0 -x 1762.006891 -y 1434.619210 -U 6.010077 -V 1.602303 -T 0.100350
n -t 2.900000 -s 1 -x 2515.023662 -y 1801.736973 -U -3.190705 -V 2.494374 -T 0.101439
n -t 2.900000 -s 2 -x 1992.029523 -y 1466.808558 -U 0.196402 -V -2.000382 -T 0.104259
n -t 3.000000 -s 0 -x 1762.607899 -y 1434.779440 -U 6.196932 -V 1.599387 -T 0.100389
n -t 3.000000 -s 1 -x 2514.704592 -y 1801.986410 -U -3.321090 -V 2.715596 -T 0.100748
n -t 3.000000 -s 2 -x 1992.049163 -y 1466.608520 -U 0.106984 -V -2.157349 -T 0.101291
n -t 3.000000 -s 3 -x 1580.390000 -y 1311.010000 -U 0.000000 -V 0.000000 -T 0.000000
n -t 3.100000 -s 0 -x 1763.227592 -y 1434.939379 -U 6.359517 -V 1.689067 -T 0.101015
n -t 3.100000 -s 1 -x 2514.372483 -y 1802.257970 -U -3.575292 -V 2.781760 -T 0.101386
n -t 3.100000 -s 2 -x 1992.059862 -y 1466.392785 -U 0.100548 -V -2.407902 -T 0.100828
n -t 3.100000 -s 3 -x 1580.390000 -y 1311.010000 -U 0.146394 -V -0.214869 -T 12.705413
n -t 3.200000 -s 0 -x 1763.863544 -y 1435.108285 -U 6.549634 -V 1.713243 -T 0.100228
n -t 3.200000 -s 1 -x 2514.014954 -y 1802.536146 -U -3.588917 -V 2.988072 -T 0.101689
n -t 3.200000 -s 2 -x 1992.069917 -y 1466.151995 -U 0.196610 -V -2.662751 -T 0.102148
n -t 3.200000 -s 3 -x 1580.404639 -y 1310.988513 -U 0.279620 -V -0.426512 -T 6.420715
n -t 3.300000 -s 0 -x 1764.518507 -y 1435.279610 -U 6.688042 -V 1.697083 -T 0.100402
n -t 3.300000 -s 1 -x 2513.656062 -y 1802.834953 -U -3.836813 -V 3.031660 -T 0.100620
n -t 3.300000 -s 2 -x 1992.089578 -y 1465.885720 -U 0.202395 -V -2.732515 -T 0.100903
n -t 3.300000 -s 3 -x 1580.432601 -y 1310.945862 -U 0.402373 -V -0.644745 -T 4.243324
n -t 3.400000 -s 0 -x 1765.187311 -y 1435.449318 -U 6.860453 -V 1.789494 -T 0.100968
n -t 3.400000 -s 1 -x 2513.272381 -y 1803.138119 -U -3.998162 -V 3.198297 -T 0.100641
n -t 3.400000 -s 2 -x 1992.109817 -y 1465.612468 -U 0.099432 -V -2.758208 -T 0.102410
n -t 3.400000 -s 3 -x 1580.472839 -y 1310.881387 -U 0.512467 -V -0.881917 -T 3.097102
n -t 3.500000 -s 0 -x 1765.873357 -y 1435.628267 -U 7.105104 -V 1.801776 -T 0.100863
n -t 3.500000 -s 1 -x 2512.872564 -y 1803.457949 -U -4.072384 -V 3.376357 -T 0.101308
n -t 3.500000 -s 2 -x 1992.119760 -y 1465.336647 -U 0.199195 -V -2.722723 -T 0.101607
n -t 3.500000 -s 3 -x 1580.524085 -y 1310.793196 -U 0.595474 -V -1.133054 -T 2.394587
n -t 3.600000 -s 0 -x 1766.583867 -y 1435.808445 -U 7.326027 -V 1.906366 -T 0.100482
n -t 3.600000 -s 1 -x 2512.465326 -y 1803.795584 -U -4.281931 -V 3.387724 -T 0.101666
n -t 3.600000 -s 2 -x 1992.139680 -y 1465.064375 -U 0.200892 -V -2.712571 -T 0.101149
n -t 3.600000 -s 3 -x 1580.583633 -y 1310.679890 -U 0.634826 -V -1.370072 -T 1.963321
n -t 3.700000 -s 0 -x 1767.316470 -y 1435.999081 -U 7.541699 -V 1.910807 -T 0.099915
n -t 3.700000 -s 1 -x 2512.037133 -y 1804.134357 -U -4.421843 -V 3.517073 -T 0.101119
n -t 3.700000 -s 2 -x 1992.159769 -y 1464.793118 -U 0.099947 -V -2.668129 -T 0.102363
n -t 3.700000 -s 3 -x 1580.647115 -y 1310.542883 -U 0.631339 -V -1.599941 -T 1.651863
n -t 3.800000 -s 0 -x 1768.070000 -y 1436.190000 -U 7.729938 -V 1.982035 -T 0.100906
n -t 3.800000 -s 1 -x 2511.594948 -y 1804.486064 -U -4.574196 -V 3.678808 -T 0.101646
n -t 3.800000 -s 2 -x 1992.169764 -y 1464.526305 -U 0.200791 -V -2.642382 -T 0.100782
n -t 3.800000 -s 3 -x 1580.710249 -y 1310.382889 -U 0.578778 -V -1.830687 -T 1.416347
n -t 3.900000 -s 0 -x 1768.842994 -y 1436.388204 -U 7.924952 -V 2.105977 -T 0.100569
n -t 3.900000 -s 1 -x 2511.137529 -y 1804.853945 -U -4.751475 -V 3.841299 -T 0.100501
n -t 3.900000 -s 2 -x 1992.189843 -y 1464.262067 -U 0.099610 -V -2.668141 -T 0.101969
n -t 3.900000 -s 3 -x 1580.768127 -y 1310.199820 -U 0.486826 -V -2.124947 -T 1.195239
n -t 4.000000 -s 0 -x 1769.635489 -y 1436.598801 -U 8.073024 -V 2.093296 -T 0.100893
n -t 4.000000 -s 1 -x 2510.662381 -y 1805.238075 -U -4.888203 -V 3.990184 -T 0.100728
n -t 4.000000 -s 2 -x 1992.199804 -y 1463.995253 -U 0.199039 -V -2.712708 -T 0.101468
n -t 4.000000 -s 3 -x 1580.816810 -y 1309.987326 -U 0.326430 -V -2.337315 -T 1.051345
n -t 4.000000 -s 4 -x 1825.940000 -y 1022.640000 -U 0.000000 -V 0.000000 -T 0.000000
n -t 4.100000 -s 0 -x 1770.442791 -y 1436.808131 -U 8.272956 -V 2.118914 -T 0.099989
n -t 4.100000 -s 1 -x 2510.173561 -y 1805.637093 -U -5.034556 -V 4.047820 -T 0.102007
n -t 4.100000 -s 2 -x 1992.219708 -y 1463.723982 -U 0.200165 -V -2.702598 -T 0.101377
n -t 4.100000 -s 3 -x 1580.849453 -y 1309.753594 -U 0.107077 -V -2.527733 -T 0.939021
n -t 4.100000 -s 4 -x 1825.940000 -y 1022.640000 -U 0.000000 -V 0.250000 -T 0.080000
n -t 4.200000 -s 0 -x 1771.270000 -y 1437.020000 -U 8.470869 -V 2.192460 -T 0.100344
n -t 4.200000 -s 1 -x 2509.670105 -y 1806.041875 -U -5.236991 -V 4.130718 -T 0.101223
n -t 4.200000 -s 2 -x 1992.239724 -y 1463.453722 -U 0.100913 -V -2.688107 -T 0.101827
n -t 4.200000 -s 3 -x 1580.860160 -y 1309.500821 -U -0.169414 -V -2.744777 -T 0.827324
n -t 4.200000 -s 4 -x 1825.940000 -y 1022.660000 -U 0.000000 -V 0.500000 -T 0.100000
n -t 4.300000 -s 0 -x 1772.117087 -y 1437.239246 -U 8.623771 -V 2.279688 -T 0.101222
n -t 4.300000 -s 1 -x 2509.146406 -y 1806.454947 -U -5.304618 -V 4.302317 -T 0.101121
n -t 4.300000 -s 2 -x 1992.249816 -y 1463.184912 -U 0.200634 -V -2.732644 -T 0.100603
n -t 4.300000 -s 3 -x 1580.843219 -y 1309.226343 -U -0.487801 -V -2.909390 -T 0.744604
n -t 4.300000 -s 4 -x 1825.940000 -y 1022.710000 -U -0.091786 -V 0.734286 -T 0.108949
n -t 4.400000 -s 0 -x 1772.979464 -y 1437.467215 -U 8.818243 -V 2.206058 -T 0.100988
n -t 4.400000 -s 1 -x 2508.615945 -y 1806.885179 -U -5.472083 -V 4.476741 -T 0.101597
n -t 4.400000 -s 2 -x 1992.269879 -y 1462.911647 -U 0.197227 -V -2.662706 -T 0.102019
n -t 4.400000 -s 3 -x 1580.794439 -y 1308.935404 -U -0.858630 -V -3.072272 -T 0.669018
n -t 4.400000 -s 4 -x 1825.930821 -y 1022.783429 -U -0.008336 -V 0.979965 -T 0.098546
n -t 4.500000 -s 0 -x 1773.861288 -y 1437.687821 -U 9.034652 -V 2.407812 -T 0.100581
n -t 4.500000 -s 1 -x 2508.068736 -y 1807.332853 -U -5.712745 -V 4.512531 -T 0.101306
n -t 4.500000 -s 2 -x 1992.289602 -y 1462.645377 -U 0.101502 -V -2.688084 -T 0.102443
n -t 4.500000 -s 3 -x 1580.708576 -y 1308.628177 -U -1.249625 -V -3.151276 -T 0.615045
n -t 4.500000 -s 4 -x 1825.930000 -y 1022.880000 -U -0.097994 -V 1.175924 -T 0.102047
n -t 4.600000 -s 0 -x 1774.764753 -y 1437.928602 -U 9.285673 -V 2.396743 -T 0.100719
n -t 4.600000 -s 1 -x 2507.497462 -y 1807.784106 -U -5.726080 -V 4.718941 -T 0.100848
n -t 4.600000 -s 2 -x 1992.299752 -y 1462.376568 -U 0.200064 -V -2.732686 -T 0.101207
n -t 4.600000 -s 3 -x 1580.583613 -y 1308.313049 -U -1.606618 -V -3.154422 -T 0.581105
n -t 4.600000 -s 4 -x 1825.920201 -y 1022.997592 -U -0.099311 -V 1.386448 -T 0.102714
n -t 4.700000 -s 0 -x 1775.693321 -y 1438.168276 -U 9.466281 -V 2.417109 -T 0.100005
n -t 4.700000 -s 1 -x 2506.924854 -y 1808.256000 -U -5.973083 -V 4.779622 -T 0.101263
n -t 4.700000 -s 2 -x 1992.319758 -y 1462.103300 -U 0.201642 -V -2.722543 -T 0.100384
n -t 4.700000 -s 3 -x 1580.422951 -y 1307.997607 -U -1.991722 -V -3.177348 -T 0.543726
n -t 4.700000 -s 4 -x 1825.910270 -y 1023.136237 -U -0.099513 -V 1.586883 -T 0.103198
n -t 4.800000 -s 0 -x 1776.639949 -y 1438.409987 -U 9.635134 -V 2.483281 -T 0.100679
n -t 4.800000 -s 1 -x 2506.327545 -y 1808.733962 -U -6.151318 -V 4.940991 -T 0.100392
n -t 4.800000 -s 2 -x 1992.339923 -y 1461.831045 -U 0.099202 -V -2.668156 -T 0.101585
n -t 4.800000 -s 3 -x 1580.223779 -y 1307.679872 -U -2.334817 -V -3.161255 -T 0.515578
n -t 4.800000 -s 4 -x 1825.900318 -y 1023.294925 -U -0.196431 -V 1.789250 -T 0.103437
n -t 4.900000 -s 0 -x 1777.603462 -y 1438.658315 -U 9.776847 -V 2.494264 -T 0.100905
n -t 4.900000 -s 1 -x 2505.712414 -y 1809.228061 -U -6.280212 -V 5.083831 -T 0.100699
n -t 4.900000 -s 2 -x 1992.349843 -y 1461.564230 -U 0.196661 -V -2.773035 -T 0.102498
n -t 4.900000 -s 3 -x 1579.990298 -y 1307.363747 -U -2.640197 -V -3.110588 -T 0.496288
n -t 4.900000 -s 4 -x 1825.880675 -y 1023.473850 -U -0.105969 -V 1.947119 -T 0.100738
n -t 5.000000 -s 0 -x 1778.581147 -y 1438.907741 -U 9.952661 -V 2.613168 -T 0.100360
n -t 5.000000 -s 1 -x 2505.084392 -y 1809.736444 -U -6.379721 -V 5.183393 -T 0.101006
n -t 5.000000 -s 2 -x 1992.369509 -y 1461.286926 -U 0.203670 -V -2.752475 -T 0.100610
n -t 5.000000 -s 3 -x 1579.726278 -y 1307.052688 -U -2.899981 -V -3.079450 -T 0.481478
n -t 5.000000 -s 4 -x 1825.870078 -y 1023.668562 -U -0.196858 -V 2.171094 -T 0.101994
n -t 5.100000 -s 0 -x 1779.576413 -y 1439.169058 -U 10.164897 -V 2.591325 -T 0.100698
n -t 5.100000 -s 1 -x 2504.446420 -y 1810.254784 -U -6.628786 -V 5.224251 -T 0.100534
n -t 5.100000 -s 2 -x 1992.389876 -y 1461.011679 -U 0.099855 -V -2.778206 -T 0.101389
n -t 5.100000 -s 3 -x 1579.436280 -y 1306.744743 -U -3.152026 -V -3.041239 -T 0.465186
n -t 5.100000 -s 4 -x 1825.850392 -y 1023.885672 -U -0.104563 -V 2.357682 -T 0.099389
n -t 5.200000 -s 0 -x 1780.592903 -y 1439.428191 -U 10.405146 -V 2.701006 -T 0.100633
n -t 5.200000 -s 1 -x 2503.783542 -y 1810.777209 -U -6.678665 -V 5.481335 -T 0.100850
n -t 5.200000 -s 2 -x 1992.399861 -y 1460.733858 -U 0.195081 -V -2.652837 -T 0.103232
n -t 5.200000 -s 3 -x 1579.121077 -y 1306.440619 -U -3.357878 -V -3.025732 -T 0.452988
n -t 5.200000 -s 4 -x 1825.840000 -y 1024.120000 -U -0.196343 -V 2.552459 -T 0.101863
n -t 5.300000 -s 0 -x 1781.633418 -y 1439.698291 -U 10.532077 -V 2.808089 -T 0.100320
n -t 5.300000 -s 1 -x 2503.115675 -y 1811.325342 -U -6.872899 -V 5.479722 -T 0.101220
n -t 5.300000 -s 2 -x 1992.419369 -y 1460.468574 -U 0.201625 -V -2.722544 -T 0.102321
n -t 5.300000 -s 3 -x 1578.785289 -y 1306.138046 -U -3.635532 -V -3.088010 -T 0.433304
n -t 5.300000 -s 4 -x 1825.820366 -y 1024.375246 -U -0.198846 -V 2.682641 -T 0.102419
n -t 5.400000 -s 0 -x 1782.686625 -y 1439.979100 -U 10.694652 -V 2.699131 -T 0.100366
n -t 5.400000 -s 1 -x 2502.428385 -y 1811.873314 -U -6.988885 -V 5.590884 -T 0.101359
n -t 5.400000 -s 2 -x 1992.439532 -y 1460.196320 -U 0.102970 -V -2.718050 -T 0.101661
n -t 5.400000 -s 3 -x 1578.421736 -y 1305.829245 -U -3.855442 -V -3.136314 -T 0.420636
n -t 5.400000 -s 4 -x 1825.800481 -y 1024.643510 -U -0.202514 -V 2.832770 -T 0.101134
n -t 5.500000 -s 0 -x 1783.756090 -y 1440.249013 -U 10.891257 -V 2.897142 -T 0.100439
n -t 5.500000 -s 1 -x 2501.729497 -y 1812.432403 -U -7.166458 -V 5.753084 -T 0.100398
n -t 5.500000 -s 2 -x 1992.449829 -y 1459.924515 -U 0.199325 -V -2.712687 -T 0.101197
n -t 5.500000 -s 3 -x 1578.036192 -y 1305.515614 -U -4.089217 -V -3.179733 -T 0.407460
n -t 5.500000 -s 4 -x 1825.780230 -y 1024.926787 -U -0.197227 -V 3.053637 -T 0.102570
n -t 5.600000 -s 0 -x 1784.845216 -y 1440.538727 -U 10.723700 -V 2.706633 -T 0.100225
n -t 5.600000 -s 1 -x 2501.012851 -y 1813.007711 -U -7.310840 -V 5.908606 -T 0.100242
n -t 5.600000 -s 2 -x 1992.469761 -y 1459.653246 -U 0.197957 -V -2.672679 -T 0.102237
n -t 5.600000 -s 3 -x 1577.627270 -y 1305.197640 -U -4.262231 -V -3.233557 -T 0.398212
n -t 5.600000 -s 4 -x 1825.760507 -y 1025.232151 -U -0.296775 -V 3.286628 -T 0.102795
n -t 5.700000 -s 0 -x 1785.917586 -y 1440.809391 -U 10.424467 -V 2.706178 -T 0.099997
n -t 5.700000 -s 1 -x 2500.281767 -y 1813.598572 -U -7.465036 -V 5.972172 -T 0.100705
n -t 5.700000 -s 2 -x 1992.489557 -y 1459.385978 -U 0.104740 -V -2.768019 -T 0.099702
n -t 5.700000 -s 3 -x 1577.201047 -y 1304.874285 -U -4.444369 -V -3.290666 -T 0.387242
n -t 5.700000 -s 4 -x 1825.730830 -y 1025.560814 -U -0.205522 -V 3.544046 -T 0.101349
n -t 5.800000 -s 0 -x 1786.960000 -y 1441.080000 -U 10.106822 -V 2.576249 -T 0.100922
n -t 5.800000 -s 1 -x 2499.535264 -y 1814.195789 -U -7.586332 -V 6.188027 -T 0.100874
n -t 5.800000 -s 2 -x 1992.500000 -y 1459.110000 -U 0.196499 -V -2.652732 -T 0.101782
n -t 5.800000 -s 3 -x 1576.756610 -y 1304.545218 -U -4.652033 -V -3.396497 -T 0.375451
n -t 5.800000 -s 4 -x 1825.710277 -y 1025.915218 -U -0.295736 -V 3.758383 -T 0.102380
n -t 5.900000 -s 0 -x 1787.970682 -y 1441.337625 -U 10.016523 -V 0.519774 -T 0.100765
n -t 5.900000 -s 1 -x 2498.776630 -y 1814.814592 -U -7.819736 -V 6.217059 -T 0.100596
n -t 5.900000 -s 2 -x 1992.519650 -y 1458.844727 -U 0.196762 -V -2.752977 -T 0.103425
n -t 5.900000 -s 3 -x 1576.291407 -y 1304.205568 -U -4.870207 -V -3.487289 -T 0.365776
n -t 5.900000 -s 4 -x 1825.680704 -y 1026.291056 -U -0.306943 -V 3.988206 -T 0.100031
n -t 6.000000 -s 0 -x 1788.972334 -y 1441.389602 -U 9.691730 -V 0.400469 -T 0.100876
n -t 6.000000 -s 1 -x 2497.994657 -y 1815.436298 -U -7.932277 -V 6.444174 -T 0.101441
n -t 6.000000 -s 2 -x 1992.539326 -y 1458.569429 -U 0.105298 -V -2.657915 -T 0.101369
n -t 6.000000 -s 3 -x 1575.804386 -y 1303.856839 -U -4.928635 -V -3.678458 -T 0.357987
n -t 6.000000 -s 4 -x 1825.650009 -y 1026.689877 -U -0.297819 -V 4.169377 -T 0.100764
n -t 6.100000 -s 0 -x 1789.941507 -y 1441.429649 -U 9.451451 -V 0.402085 -T 0.100354
n -t 6.100000 -s 1 -x 2497.201429 -y 1816.080715 -U -8.165301 -V 6.553530 -T 0.100600
n -t 6.100000 -s 2 -x 1992.549856 -y 1458.303638 -U 0.198961 -V -2.702687 -T 0.101246
n -t 6.100000 -s 3 -x 1575.311523 -y 1303.488994 -U -5.009725 -V -3.836503 -T 0.351621
n -t 6.100000 -s 4 -x 1825.620228 -y 1027.106815 -U -0.302129 -V 4.429709 -T 0.100048
n -t 6.200000 -s 0 -x 1790.886653 -y 1441.469858 -U 9.086317 -V 0.498835 -T 0.100519
n -t 6.200000 -s 1 -x 2496.384899 -y 1816.736068 -U -8.287060 -V 6.689330 -T 0.100747
n -t 6.200000 -s 2 -x 1992.569752 -y 1458.033369 -U 0.196713 -V -2.752981 -T 0.102932
n -t 6.200000 -s 3 -x 1574.810550 -y 1303.105343 -U -5.188530 -V -4.030391 -T 0.341243
n -t 6.200000 -s 4 -x 1825.590015 -y 1027.549786 -U -0.393436 -V 4.623290 -T 0.101706
n -t 6.300000 -s 0 -x 1791.795284 -y 1441.519741 -U 8.810882 -V 0.400938 -T 0.100412
n -t 6.300000 -s 1 -x 2495.556193 -y 1817.405001 -U -8.511254 -V 6.809446 -T 0.100595
n -t 6.300000 -s 2 -x 1992.589423 -y 1457.758071 -U 0.103383 -V -2.718035 -T 0.102306
n -t 6.300000 -s 3 -x 1574.291697 -y 1302.702304 -U -5.288461 -V -4.162341 -T 0.336903
n -t 6.300000 -s 4 -x 1825.550671 -y 1028.012115 -U -0.306795 -V 4.780165 -T 0.099973
n -t 6.400000 -s 0 -x 1792.676373 -y 1441.559835 -U 8.504692 -V 0.300535 -T 0.100371
n -t 6.400000 -s 1 -x 2494.705068 -y 1818.085946 -U -8.671699 -V 6.977001 -T 0.100911
n -t 6.400000 -s 2 -x 1992.599762 -y 1457.486267 -U 0.200841 -V -2.642378 -T 0.100768
n -t 6.400000 -s 3 -x 1573.762851 -y 1302.286070 -U -5.228450 -V -4.624252 -T 0.325689
n -t 6.400000 -s 4 -x 1825.520000 -y 1028.490000 -U -0.398726 -V 4.984076 -T 0.100319
n -t 6.500000 -s 0 -x 1793.526842 -y 1441.589888 -U 8.210258 -V 0.400077 -T 0.100260
n -t 6.500000 -s 1 -x 2493.837898 -y 1818.783646 -U -8.815897 -V 7.211939 -T 0.100716
n -t 6.500000 -s 2 -x 1992.619846 -y 1457.222030 -U 0.100715 -V -2.698121 -T 0.100822
n -t 6.500000 -s 3 -x 1573.240006 -y 1301.823645 -U -5.095464 -V -5.044318 -T 0.319894
n -t 6.500000 -s 4 -x 1825.480127 -y 1028.988408 -U -0.295929 -V 5.221621 -T 0.101806
n -t 6.600000 -s 0 -x 1794.347868 -y 1441.629896 -U 7.859933 -V 0.397931 -T 0.100781
n -t 6.600000 -s 1 -x 2492.956308 -y 1819.504840 -U -9.002865 -V 7.203424 -T 0.100669
n -t 6.600000 -s 2 -x 1992.629917 -y 1456.952217 -U 0.195198 -V -2.743064 -T 0.102884
n -t 6.600000 -s 3 -x 1572.730460 -y 1301.319213 -U -4.656745 -V -4.955272 -T 0.330802
n -t 6.600000 -s 4 -x 1825.450534 -y 1029.510570 -U -0.402384 -V 5.354903 -T 0.100736
n -t 6.700000 -s 0 -x 1795.133861 -y 1441.669689 -U 7.664158 -V 0.299311 -T 0.101269
n -t 6.700000 -s 1 -x 2492.056021 -y 1820.225182 -U -9.155881 -V 7.364261 -T 0.101140
n -t 6.700000 -s 2 -x 1992.649437 -y 1456.677911 -U 0.202921 -V -2.742503 -T 0.101335
n -t 6.700000 -s 3 -x 1572.264785 -y 1300.823686 -U -3.984299 -V -4.944478 -T 0.342541
n -t 6.700000 -s 4 -x 1825.410296 -y 1030.046060 -U -0.397702 -V 5.565809 -T 0.101322
n -t 6.800000 -s 0 -x 1795.900277 -y 1441.699620 -U 7.299133 -V 0.398442 -T 0.101344
n -t 6.800000 -s 1 -x 2491.140433 -y 1820.961608 -U -9.272641 -V 7.458426 -T 0.100342
n -t 6.800000 -s 2 -x 1992.669729 -y 1456.403661 -U 0.099146 -V -2.738206 -T 0.103594
n -t 6.800000 -s 3 -x 1571.866355 -y 1300.329238 -U -3.260200 -V -4.917428 -T 0.357756
n -t 6.800000 -s 4 -x 1825.370526 -y 1030.602641 -U -0.399811 -V 5.695986 -T 0.101362
n -t 6.900000 -s 0 -x 1796.630190 -y 1441.739464 -U 7.113602 -V 0.301771 -T 0.101188
n -t 6.900000 -s 1 -x 2490.213169 -y 1821.707451 -U -9.471872 -V 7.577634 -T 0.100632
n -t 6.900000 -s 2 -x 1992.679644 -y 1456.129840 -U 0.196613 -V -2.702858 -T 0.103535
n -t 6.900000 -s 3 -x 1571.540335 -y 1299.837495 -U -2.748194 -V -4.741079 -T 0.374914
n -t 6.900000 -s 4 -x 1825.330545 -y 1031.172240 -U -0.503009 -V 5.948771 -T 0.100485
n -t 7.000000 -s 0 -x 1797.341550 -y 1441.769642 -U 6.823369 -V 0.300889 -T 0.100896
n -t 7.000000 -s 1 -x 2489.265982 -y 1822.465214 -U -9.532426 -V 7.725655 -T 0.100287
n -t 7.000000 -s 2 -x 1992.699305 -y 1455.859554 -U 0.203023 -V -2.742496 -T 0.101934
n -t 7.000000 -s 3 -x 1571.265516 -y 1299.363387 -U -2.196188 -V -4.525225 -T 0.394099
n -t 7.000000 -s 4 -x 1825.280244 -y 1031.767117 -U -0.398452 -V 6.167142 -T 0.101000
n -t 7.000000 -s 5 -x 1723.940000 -y 1492.150000 -U 0.000000 -V 0.000000 -T 0.000000
n -t 7.100000 -s 0 -x 1798.023887 -y 1441.799730 -U 6.442933 -V 0.301843 -T 0.100282
n -t 7.100000 -s 1 -x 2488.312739 -y 1823.237780 -U -9.709978 -V 7.808197 -T 0.100179
n -t 7.100000 -s 2 -x 1992.719607 -y 1455.585305 -U 0.101852 -V -2.698078 -T 0.102037
n -t 7.100000 -s 3 -x 1571.045897 -y 1298.910865 -U -1.467805 -V -4.338427 -T 0.412791
n -t 7.100000 -s 4 -x 1825.240399 -y 1032.383831 -U -0.496107 -V 6.360682 -T 0.101588
n -t 7.100000 -s 5 -x 1723.940000 -y 1492.150000 -U 0.232551 -V 0.116276 -T 0.086003
n -t 7.200000 -s 0 -x 1798.668180 -y 1441.829915 -U 6.172779 -V 0.298655 -T 0.100736
n -t 7.200000 -s 1 -x 2487.341742 -y 1824.018599 -U -9.846898 -V 7.957022 -T 0.100716
n -t 7.200000 -s 2 -x 1992.729792 -y 1455.315497 -U 0.199707 -V -2.722686 -T 0.101186
n -t 7.200000 -s 3 -x 1570.899117 -y 1298.477022 -U -0.974632 -V -4.013352 -T 0.440286
n -t 7.200000 -s 4 -x 1825.190788 -y 1033.019899 -U -0.406423 -V 6.577455 -T 0.100358
n -t 7.200000 -s 5 -x 1723.960000 -y 1492.160000 -U 0.353553 -V 0.353553 -T 0.113137
n -t 7.300000 -s 0 -x 1799.285458 -y 1441.859780 -U 5.996647 -V 0.200566 -T 0.100813
n -t 7.300000 -s 1 -x 2486.357052 -y 1824.814302 -U -10.016419 -V 8.113165 -T 0.100540
n -t 7.300000 -s 2 -x 1992.749763 -y 1455.043228 -U 0.195276 -V -2.733033 -T 0.103632
n -t 7.300000 -s 3 -x 1570.801653 -y 1298.075687 -U -0.630119 -V -3.625652 -T 0.478724
n -t 7.300000 -s 4 -x 1825.150146 -y 1033.677645 -U -0.496182 -V 6.751793 -T 0.101063
n -t 7.300000 -s 5 -x 1723.995355 -y 1492.195355 -U 0.572778 -V 0.484174 -T 0.112862
n -t 7.400000 -s 0 -x 1799.885123 -y 1441.879837 -U 5.621991 -V 0.300201 -T 0.100476
n -t 7.400000 -s 1 -x 2485.355410 -y 1825.625618 -U -10.186281 -V 8.189297 -T 0.100666
n -t 7.400000 -s 2 -x 1992.769291 -y 1454.769925 -U 0.105895 -V -2.767975 -T 0.101130
n -t 7.400000 -s 3 -x 1570.738641 -y 1297.713122 -U -0.395041 -V -3.205751 -T 0.528151
n -t 7.400000 -s 4 -x 1825.100527 -y 1034.352824 -U -0.499487 -V 6.891924 -T 0.101158
n -t 7.400000 -s 5 -x 1724.052633 -y 1492.243773 -U 0.683840 -V 0.673767 -T 0.113136
n -t 7.500000 -s 0 -x 1800.447322 -y 1441.909857 -U 5.446384 -V 0.198500 -T 0.101476
n -t 7.500000 -s 1 -x 2484.336782 -y 1826.444548 -U -10.334568 -V 8.228050 -T 0.100322
n -t 7.500000 -s 2 -x 1992.779880 -y 1454.493128 -U 0.196886 -V -2.672758 -T 0.102189
n -t 7.500000 -s 3 -x 1570.699137 -y 1297.392547 -U -0.184308 -V -2.773884 -T 0.592147
n -t 7.500000 -s 4 -x 1825.050579 -y 1035.042016 -U -0.503799 -V 7.052027 -T 0.100394
n -t 7.500000 -s 5 -x 1724.121017 -y 1492.311150 -U 0.863247 -V 0.862093 -T 0.114663
n -t 7.600000 -s 0 -x 1800.991960 -y 1441.929707 -U 5.151200 -V 0.301223 -T 0.100567
n -t 7.600000 -s 1 -x 2483.303325 -y 1827.267353 -U -10.424599 -V 8.419486 -T 0.100083
n -t 7.600000 -s 2 -x 1992.799569 -y 1454.225852 -U 0.201646 -V -2.722543 -T 0.101321
n -t 7.600000 -s 3 -x 1570.680707 -y 1297.115158 -U -0.017853 -V -2.709941 -T 0.599702
n -t 7.600000 -s 4 -x 1825.000199 -y 1035.747219 -U -0.598507 -V 7.285457 -T 0.100581
n -t 7.600000 -s 5 -x 1724.207342 -y 1492.397359 -U 1.046590 -V 1.046446 -T 0.117198
n -t 7.700000 -s 0 -x 1801.507080 -y 1441.959829 -U 4.765483 -V -1.182484 -T 0.101337
n -t 7.700000 -s 1 -x 2482.260865 -y 1828.109301 -U -10.563210 -V 8.470548 -T 0.100430
n -t 7.700000 -s 2 -x 1992.819734 -y 1453.953598 -U 0.099487 -V -2.748200 -T 0.103194
n -t 7.700000 -s 3 -x 1570.678921 -y 1296.844164 -U 0.119218 -V -2.707376 -T 0.596210
n -t 7.700000 -s 4 -x 1824.940348 -y 1036.475765 -U -0.502847 -V 7.433010 -T 0.100126
n -t 7.700000 -s 5 -x 1724.312001 -y 1492.502003 -U 1.173808 -V 1.173787 -T 0.117565
n -t 7.800000 -s 0 -x 1801.983629 -y 1441.841581 -U 4.551260 -V -1.212492 -T 0.100274
n -t 7.800000 -s 1 -x 2481.204544 -y 1828.956356 -U -10.670648 -V 8.576326 -T 0.100701
n -t 7.800000 -s 2 -x 1992.829682 -y 1453.678778 -U 0.200506 -V -2.652432 -T 0.101332
n -t 7.800000 -s 3 -x 1570.690843 -y 1296.573426 -U 0.217587 -V -2.701251 -T 0.593587
n -t 7.800000 -s 4 -x 1824.890063 -y 1037.219066 -U -0.493790 -V 7.603984 -T 0.101386
n -t 7.800000 -s 5 -x 1724.429382 -y 1492.619382 -U 1.371367 -V 1.285983 -T 0.117123
n -t 7.900000 -s 0 -x 1802.438755 -y 1441.720332 -U 4.253013 -V -1.088110 -T 0.101398
n -t 7.900000 -s 1 -x 2480.137479 -y 1829.813989 -U -10.684374 -V 8.686601 -T 0.100846
n -t 7.900000 -s 2 -x 1992.849733 -y 1453.413534 -U 0.198028 -V -2.672674 -T 0.102345
n -t 7.900000 -s 3 -x 1570.712602 -y 1296.303301 -U 0.324735 -V -2.760969 -T 0.577081
n -t 7.900000 -s 4 -x 1824.840684 -y 1037.979464 -U -0.604601 -V 7.776533 -T 0.100371
n -t 7.900000 -s 5 -x 1724.566518 -y 1492.747980 -U 1.539300 -V 1.443141 -T 0.119198
n -t 8.000000 -s 0 -x 1802.864056 -y 1441.611521 -U 4.011382 -V -1.102005 -T 0.101198
n -t 8.000000 -s 1 -x 2479.069042 -y 1830.682649 -U -10.732556 -V 8.627001 -T 0.100539
n -t 8.000000 -s 2 -x 1992.869536 -y 1453.146267 -U 0.103710 -V -2.738037 -T 0.100900
n -t 8.000000 -s 3 -x 1570.745075 -y 1296.027205 -U 0.393357 -V -2.640865 -T 0.597230
n -t 8.000000 -s 4 -x 1824.780224 -y 1038.757117 -U -0.594771 -V 8.027998 -T 0.101256
n -t 8.000000 -s 5 -x 1724.720448 -y 1492.892294 -U 1.648093 -V 1.632847 -T 0.121080
n -t 8.000000 -s 6 -x 2036.760000 -y 1898.220000 -U 0.000000 -V 0.000000 -T 0.000000
n -t 8.100000 -s 0 -x 1803.265194 -y 1441.501320 -U 3.907637 -V -1.101805 -T 0.101034
n -t 8.100000 -s 1 -x 2477.995786 -y 1831.545349 -U -10.725167 -V 8.620232 -T 0.100305
n -t 8.100000 -s 2 -x 1992.879907 -y 1452.872463 -U 0.196371 -V -2.662769 -T 0.102323
n -t 8.100000 -s 3 -x 1570.784411 -y 1295.763118 -U 0.475057 -V -2.728960 -T 0.580118