M 0.00000 0 (824.32, 1250.61, 0.00), (824.32, 1250.61), 0.00
M 0.10000 0 (824.32, 1250.61, 0.00), (824.34, 1250.61), 0.25
M 0.20000 0 (824.34, 1250.61, 0.00), (824.39, 1250.61), 0.49
M 0.30000 0 (824.39, 1250.61, 0.00), (824.47, 1250.61), 0.75
M 0.40000 0 (824.46, 1250.61, 0.00), (824.56, 1250.60), 0.98
s 0.470844958 _4_ RTR  --- 0 message 32 [0 0 0 0] ------- [4:255 -1:255 32 0] 
r 0.471825549 _3_ RTR  --- 0 message 32 [0 ffffffff 4 800] ------- [4:255 -1:255 32 0] 
r 0.471825583 _6_ RTR  --- 0 message 32 [0 ffffffff 4 800] ------- [4:255 -1:255 32 0] 
r 0.471825685 _7_ RTR  --- 0 message 32 [0 ffffffff 4 800] ------- [4:255 -1:255 32 0] 
M 0.50000 0 (824.56, 1250.60, 0.00), (824.68, 1250.60), 1.21
M 0.60000 0 (824.68, 1250.60, 0.00), (824.83, 1250.59), 1.46
s 0.626755393 _6_ RTR  --- 1 message 32 [0 0 0 0] ------- [6:255 -1:255 32 0] 
s 0.627671596 _2_ RTR  --- 2 message 32 [0 0 0 0] ------- [2:255 -1:255 32 0] 
r 0.627895553 _3_ RTR  --- 1 message 32 [0 ffffffff 6 800] ------- [6:255 -1:255 32 0] 
r 0.627896017 _4_ RTR  --- 1 message 32 [0 ffffffff 6 800] ------- [6:255 -1:255 32 0] 
M 0.70000 0 (824.83, 1250.59, 0.00), (825.00, 1250.59), 1.66
M 0.80000 0 (824.99, 1250.59, 0.00), (825.19, 1250.58), 1.90
s 0.887533252 _0_ RTR  --- 3 message 32 [0 0 0 0] ------- [0:255 -1:255 32 0] 
M 0.90000 0 (825.18, 1250.58, 0.00), (825.40, 1250.57), 2.10
M 1.00000 0 (825.39, 1250.57, 0.00), (825.62, 1250.57), 2.27
M 1.10000 0 (825.62, 1250.57, 0.00), (825.87, 1250.56), 2.53
M 1.20000 0 (825.87, 1250.56, 0.00), (826.14, 1250.55), 2.70
s 1.286128539 _5_ RTR  --- 4 message 32 [0 0 0 0] ------- [5:255 -1:255 32 0] 
M 1.30000 0 (826.14, 1250.55, 0.00), (826.43, 1250.54), 2.90
M 1.40000 0 (826.43, 1250.54, 0.00), (826.74, 1250.52), 3.10
M 1.50000 0 (826.74, 1250.52, 0.00), (827.07, 1250.51), 3.29
M 1.60000 0 (827.07, 1250.51, 0.00), (827.42, 1250.50), 3.51
s 1.605084396 _1_ RTR  --- 5 message 32 [0 0 0 0] ------- [1:255 -1:255 32 0] 
s 1.634044088 _3_ RTR  --- 6 message 32 [0 0 0 0] ------- [3:255 -1:255 32 0] 
r 1.634964248 _6_ RTR  --- 6 message 32 [0 ffffffff 3 800] ------- [3:255 -1:255 32 0] 
r 1.634964679 _4_ RTR  --- 6 message 32 [0 ffffffff 3 800] ------- [3:255 -1:255 32 0] 
s 1.682109723 _7_ RTR  --- 7 message 32 [0 0 0 0] ------- [7:255 -1:255 32 0] 
r 1.683510451 _4_ RTR  --- 7 message 32 [0 ffffffff 7 800] ------- [7:255 -1:255 32 0] 
M 1.70000 0 (827.42, 1250.50, 0.00), (827.80, 1250.49), 3.77
M 1.80000 0 (827.80, 1250.49, 0.00), (828.19, 1250.47), 3.91
M 1.90000 0 (828.19, 1250.47, 0.00), (828.60, 1250.46), 4.13
M 2.00000 0 (828.60, 1250.46, 0.00), (829.03, 1250.44), 4.30
M 2.00000 1 (776.93, 787.61, 0.00), (776.93, 787.61), 0.00
M 2.10000 0 (829.03, 1250.44, 0.00), (829.48, 1250.42), 4.49
M 2.10000 1 (776.93, 787.61, 0.00), (776.95, 787.63), 0.26
M 2.20000 0 (829.48, 1250.42, 0.00), (829.95, 1250.41), 4.67
M 2.20000 1 (776.95, 787.63, 0.00), (776.99, 787.66), 0.51
M 2.30000 0 (829.94, 1250.41, 0.00), (830.43, 1250.39), 4.83
M 2.30000 1 (776.99, 787.66, 0.00), (777.05, 787.70), 0.74
M 2.40000 0 (830.43, 1250.39, 0.00), (830.94, 1250.37), 5.03
M 2.40000 1 (777.05, 787.70, 0.00), (777.13, 787.76), 0.95
M 2.50000 0 (830.93, 1250.37, 0.00), (831.46, 1250.35), 5.26
M 2.50000 1 (777.13, 787.76, 0.00), (777.22, 787.83), 1.18
M 2.60000 0 (831.45, 1250.35, 0.00), (832.01, 1250.33), 5.48
M 2.60000 1 (777.22, 787.83, 0.00), (777.34, 787.91), 1.44
M 2.70000 0 (832.00, 1250.33, 0.00), (832.58, 1250.31), 5.72
M 2.70000 1 (777.34, 787.91, 0.00), (777.47, 788.01), 1.63
M 2.80000 0 (832.57, 1250.31, 0.00), (833.18, 1250.29), 5.98
M 2.80000 1 (777.47, 788.01, 0.00), (777.62, 788.12), 1.80
M 2.90000 0 (833.17, 1250.29, 0.00), (833.80, 1250.27), 6.20
M 2.90000 1 (777.61, 788.12, 0.00), (777.78, 788.23), 1.99
M 3.00000 0 (833.79, 1250.27, 0.00), (834.44, 1250.24), 6.44
M 3.00000 1 (777.78, 788.23, 0.00), (777.96, 788.37), 2.24
M 3.00000 2 (1301.53, 1285.98, 0.00), (1301.53, 1285.98), 0.00
M 3.10000 0 (834.43, 1250.24, 0.00), (835.10, 1250.22), 6.57
M 3.10000 1 (777.95, 788.37, 0.00), (778.15, 788.51), 2.44
M 3.10000 2 (1301.53, 1285.98, 0.00), (1301.53, 1286.00), 0.26
M 3.20000 0 (835.09, 1250.22, 0.00), (835.78, 1250.19), 6.81
M 3.20000 1 (778.15, 788.51, 0.00), (778.37, 788.67), 2.68
M 3.20000 2 (1301.53, 1286.00, 0.00), (1301.53, 1286.05), 0.50
M 3.30000 0 (835.77, 1250.19, 0.00), (836.48, 1250.17), 6.97
M 3.30000 1 (778.37, 788.67, 0.00), (778.60, 788.84), 2.90
M 3.30000 2 (1301.53, 1286.05, 0.00), (1301.52, 1286.13), 0.76
M 3.40000 0 (836.47, 1250.17, 0.00), (837.19, 1250.14), 7.13
M 3.40000 1 (778.60, 788.84, 0.00), (778.85, 789.03), 3.08
M 3.40000 2 (1301.52, 1286.13, 0.00), (1301.52, 1286.23), 0.99
M 3.50000 0 (837.18, 1250.14, 0.00), (837.92, 1250.12), 7.27
M 3.50000 1 (778.85, 789.03, 0.00), (779.11, 789.22), 3.25
M 3.50000 2 (1301.52, 1286.22, 0.00), (1301.52, 1286.35), 1.19
M 3.60000 0 (837.91, 1250.12, 0.00), (838.66, 1250.09), 7.47
M 3.60000 1 (779.11, 789.22, 0.00), (779.39, 789.43), 3.47
M 3.60000 2 (1301.52, 1286.34, 0.00), (1301.51, 1286.49), 1.41
M 3.70000 0 (838.65, 1250.09, 0.00), (839.42, 1250.06), 7.60
M 3.70000 1 (779.39, 789.43, 0.00), (779.69, 789.65), 3.70
M 3.70000 2 (1301.51, 1286.48, 0.00), (1301.50, 1286.65), 1.65
M 3.80000 0 (839.41, 1250.06, 0.00), (840.21, 1250.03), 7.84
M 3.80000 1 (779.68, 789.65, 0.00), (780.00, 789.88), 3.88
M 3.80000 2 (1301.50, 1286.65, 0.00), (1301.50, 1286.84), 1.91
M 3.90000 0 (840.20, 1250.03, 0.00), (841.01, 1250.00), 8.03
M 3.90000 1 (780.00, 789.88, 0.00), (780.33, 790.12), 4.11
M 3.90000 2 (1301.50, 1286.84, 0.00), (1301.49, 1287.05), 2.07
M 4.00000 0 (841.00, 1250.00, 0.00), (841.83, 1249.97), 8.27
M 4.00000 1 (780.33, 790.12, 0.00), (780.68, 790.38), 4.36
M 4.00000 2 (1301.49, 1287.05, 0.00), (1301.48, 1287.27), 2.21
M 4.10000 0 (841.83, 1249.97, 0.00), (842.68, 1249.94), 8.49
M 4.10000 1 (780.68, 790.38, 0.00), (781.05, 790.65), 4.58
M 4.10000 2 (1301.48, 1287.27, 0.00), (1301.48, 1287.52), 2.46
M 4.20000 0 (842.67, 1249.94, 0.00), (843.55, 1249.91), 8.72
M 4.20000 1 (781.05, 790.65, 0.00), (781.44, 790.93), 4.76
M 4.20000 2 (1301.48, 1287.51, 0.00), (1301.47, 1287.79), 2.70
M 4.30000 0 (843.55, 1249.91, 0.00), (844.45, 1249.88), 8.97
M 4.30000 1 (781.43, 790.93, 0.00), (781.84, 791.23), 5.02
M 4.30000 2 (1301.47, 1287.78, 0.00), (1301.46, 1288.07), 2.86
M 4.40000 0 (844.44, 1249.88, 0.00), (845.37, 1249.84), 9.19
M 4.40000 1 (781.84, 791.23, 0.00), (782.26, 791.54), 5.23
M 4.40000 2 (1301.46, 1288.07, 0.00), (1301.45, 1288.38), 3.10
M 4.50000 0 (845.36, 1249.84, 0.00), (846.31, 1249.81), 9.40
M 4.50000 1 (782.26, 791.54, 0.00), (782.70, 791.86), 5.40
M 4.50000 2 (1301.45, 1288.38, 0.00), (1301.44, 1288.71), 3.28
M 4.60000 0 (846.30, 1249.81, 0.00), (847.27, 1249.77), 9.59
M 4.60000 1 (782.69, 791.86, 0.00), (783.15, 792.20), 5.61
M 4.60000 2 (1301.44, 1288.71, 0.00), (1301.42, 1289.05), 3.43
M 4.70000 0 (847.26, 1249.77, 0.00), (848.25, 1249.74), 9.80
M 4.70000 1 (783.14, 792.19, 0.00), (783.62, 792.54), 5.80
M 4.70000 2 (1301.42, 1289.05, 0.00), (1301.41, 1289.42), 3.64
M 4.80000 0 (848.24, 1249.74, 0.00), (849.25, 1249.70), 10.05
M 4.80000 1 (783.61, 792.53, 0.00), (784.10, 792.89), 5.93
M 4.80000 2 (1301.41, 1289.41, 0.00), (1301.40, 1289.80), 3.86
M 4.90000 0 (849.24, 1249.70, 0.00), (850.27, 1249.66), 10.20
M 4.90000 1 (784.09, 792.88, 0.00), (784.59, 793.26), 6.17
M 4.90000 2 (1301.40, 1289.80, 0.00), (1301.38, 1290.21), 4.04
M 5.00000 0 (850.26, 1249.66, 0.00), (851.31, 1249.63), 10.39
M 5.00000 1 (784.58, 793.25, 0.00), (785.10, 793.64), 6.31
M 5.00000 2 (1301.38, 1290.20, 0.00), (1301.37, 1290.63), 4.25
M 5.10000 0 (851.30, 1249.63, 0.00), (852.37, 1249.59), 10.59
M 5.10000 1 (785.09, 793.63, 0.00), (785.62, 794.02), 6.48
M 5.10000 2 (1301.37, 1290.63, 0.00), (1301.36, 1291.07), 4.39
M 5.20000 0 (852.36, 1249.59, 0.00), (853.44, 1249.55), 10.73
M 5.20000 1 (785.61, 794.01, 0.00), (786.16, 794.42), 6.67
M 5.20000 2 (1301.36, 1291.07, 0.00), (1301.34, 1291.53), 4.61
M 5.30000 0 (853.43, 1249.55, 0.00), (854.53, 1249.51), 10.94
M 5.30000 1 (786.15, 794.41, 0.00), (786.72, 794.83), 6.87
M 5.30000 2 (1301.34, 1291.53, 0.00), (1301.32, 1292.01), 4.78
M 5.40000 0 (854.52, 1249.51, 0.00), (855.65, 1249.47), 11.14
M 5.40000 1 (786.70, 794.82, 0.00), (787.29, 795.25), 7.12
M 5.40000 2 (1301.32, 1292.00, 0.00), (1301.31, 1292.51), 4.96
M 5.50000 0 (855.64, 1249.47, 0.00), (856.78, 1249.43), 11.37
M 5.50000 1 (787.27, 795.24, 0.00), (787.88, 795.68), 7.28
M 5.50000 2 (1301.31, 1292.50, 0.00), (1301.29, 1293.02), 5.12
M 5.60000 0 (856.77, 1249.43, 0.00), (857.93, 1249.38), 11.53
M 5.60000 1 (787.86, 795.67, 0.00), (788.48, 796.13), 7.52
M 5.60000 2 (1301.29, 1293.01, 0.00), (1301.27, 1293.55), 5.37
M 5.70000 0 (857.92, 1249.38, 0.00), (859.11, 1249.34), 11.75
M 5.70000 1 (788.47, 796.12, 0.00), (789.10, 796.58), 7.67
M 5.70000 2 (1301.27, 1293.55, 0.00), (1301.25, 1294.11), 5.56
M 5.80000 0 (859.10, 1249.34, 0.00), (860.30, 1249.30), 11.96
M 5.80000 1 (789.09, 796.57, 0.00), (789.74, 797.05), 7.92
M 5.80000 2 (1301.25, 1294.10, 0.00), (1301.23, 1294.68), 5.74
M 5.90000 0 (860.29, 1249.30, 0.00), (861.51, 1249.25), 12.11
M 5.90000 1 (789.72, 797.04, 0.00), (790.39, 797.53), 8.06
M 5.90000 2 (1301.23, 1294.68, 0.00), (1301.21, 1295.28), 5.98
M 6.00000 0 (861.50, 1249.25, 0.00), (862.74, 1249.21), 12.32
M 6.00000 1 (790.37, 797.52, 0.00), (791.05, 798.02), 8.20
M 6.00000 2 (1301.21, 1295.28, 0.00), (1301.19, 1295.90), 6.15
M 6.10000 0 (862.74, 1249.21, 0.00), (863.99, 1249.16), 12.50
M 6.10000 1 (791.03, 798.01, 0.00), (791.73, 798.52), 8.40
M 6.10000 2 (1301.19, 1295.89, 0.00), (1301.17, 1296.53), 6.37
M 6.20000 0 (863.98, 1249.16, 0.00), (865.26, 1249.12), 12.68
M 6.20000 1 (791.71, 798.50, 0.00), (792.42, 799.03), 8.61
M 6.20000 2 (1301.17, 1296.53, 0.00), (1301.15, 1297.19), 6.56
M 6.30000 0 (865.25, 1249.12, 0.00), (866.55, 1249.07), 12.92
M 6.30000 1 (792.40, 799.02, 0.00), (793.13, 799.55), 8.80
M 6.30000 2 (1301.15, 1297.18, 0.00), (1301.13, 1297.86), 6.71
M 6.40000 0 (866.54, 1249.07, 0.00), (867.86, 1249.02), 13.08
M 6.40000 1 (793.11, 799.54, 0.00), (793.85, 800.09), 8.97
M 6.40000 2 (1301.13, 1297.85, 0.00), (1301.10, 1298.54), 6.84
M 6.50000 0 (867.85, 1249.02, 0.00), (869.19, 1248.98), 13.33
M 6.50000 1 (793.83, 800.07, 0.00), (794.59, 800.63), 9.16
M 6.50000 2 (1301.10, 1298.54, 0.00), (1301.08, 1299.24), 6.97
M 6.60000 0 (869.18, 1248.98, 0.00), (870.54, 1248.93), 13.53
M 6.60000 1 (794.57, 800.61, 0.00), (795.34, 801.18), 9.31
M 6.60000 2 (1301.08, 1299.23, 0.00), (1301.06, 1299.95), 7.12
M 6.70000 0 (870.53, 1248.93, 0.00), (871.92, 1248.88), 13.75
M 6.70000 1 (795.32, 801.16, 0.00), (796.11, 801.75), 9.55
M 6.70000 2 (1301.06, 1299.94, 0.00), (1301.03, 1300.68), 7.27
M 6.80000 0 (871.91, 1248.88, 0.00), (873.30, 1248.83), 13.85
M 6.80000 1 (796.09, 801.73, 0.00), (796.90, 802.33), 9.75
M 6.80000 2 (1301.03, 1300.67, 0.00), (1301.01, 1301.43), 7.53
M 6.90000 0 (873.29, 1248.83, 0.00), (874.68, 1248.78), 13.77
M 6.90000 1 (796.87, 802.31, 0.00), (797.69, 802.92), 9.92
M 6.90000 2 (1301.01, 1301.42, 0.00), (1300.98, 1302.21), 7.79
M 7.00000 0 (874.67, 1248.78, 0.00), (876.05, 1248.73), 13.77
M 7.00000 1 (797.67, 802.90, 0.00), (798.51, 803.52), 10.12
M 7.00000 2 (1300.98, 1302.20, 0.00), (1300.95, 1303.01), 8.00
M 7.00000 3 (1723.94, 1492.15, 0.00), (1723.94, 1492.15), 0.00
M 7.10000 0 (876.04, 1248.73, 0.00), (877.43, 1248.68), 13.78
M 7.10000 1 (798.48, 803.50, 0.00), (799.34, 804.13), 10.27
M 7.10000 2 (1300.95, 1303.00, 0.00), (1300.92, 1303.83), 8.21
M 7.10000 3 (1723.94, 1492.15, 0.00), (1723.96, 1492.16), 0.26
M 7.20000 0 (877.42, 1248.68, 0.00), (878.81, 1248.63), 13.77
M 7.20000 1 (799.31, 804.11, 0.00), (800.18, 804.75), 10.46
M 7.20000 2 (1300.92, 1303.82, 0.00), (1300.90, 1304.67), 8.37
M 7.20000 3 (1723.96, 1492.16, 0.00), (1724.00, 1492.20), 0.49
M 7.30000 0 (878.80, 1248.63, 0.00), (880.19, 1248.58), 13.85
M 7.30000 1 (800.15, 804.73, 0.00), (801.04, 805.38), 10.61
M 7.30000 2 (1300.90, 1304.66, 0.00), (1300.87, 1305.52), 8.60
M 7.30000 3 (1723.99, 1492.19, 0.00), (1724.06, 1492.25), 0.74
M 7.40000 0 (880.18, 1248.58, 0.00), (881.57, 1248.52), 13.85
M 7.40000 1 (801.01, 805.36, 0.00), (801.91, 806.03), 10.81
M 7.40000 2 (1300.87, 1305.52, 0.00), (1300.84, 1306.40), 8.76
M 7.40000 3 (1724.05, 1492.24, 0.00), (1724.13, 1492.32), 0.99
M 7.50000 0 (881.57, 1248.52, 0.00), (882.95, 1248.47), 13.79
M 7.50000 1 (801.87, 806.00, 0.00), (802.80, 806.68), 11.03
M 7.50000 2 (1300.84, 1306.39, 0.00), (1300.81, 1307.30), 9.00
M 7.50000 3 (1724.12, 1492.31, 0.00), (1724.22, 1492.41), 1.22
M 7.60000 0 (882.94, 1248.47, 0.00), (884.33, 1248.42), 13.79
M 7.60000 1 (802.76, 806.65, 0.00), (803.70, 807.35), 11.27
M 7.60000 2 (1300.81, 1307.29, 0.00), (1300.78, 1308.23), 9.25
M 7.60000 3 (1724.21, 1492.40, 0.00), (1724.33, 1492.51), 1.44
M 7.70000 0 (884.32, 1248.42, 0.00), (885.71, 1248.37), 13.86
M 7.70000 1 (803.67, 807.33, 0.00), (804.63, 808.03), 11.50
M 7.70000 2 (1300.78, 1308.22, 0.00), (1300.74, 1309.17), 9.48
M 7.70000 3 (1724.31, 1492.50, 0.00), (1724.45, 1492.63), 1.69
M 7.80000 0 (885.71, 1248.37, 0.00), (887.10, 1248.32), 13.86
M 7.80000 1 (804.60, 808.01, 0.00), (805.58, 808.73), 11.72
M 7.80000 2 (1300.74, 1309.17, 0.00), (1300.71, 1310.14), 9.63
M 7.80000 3 (1724.43, 1492.61, 0.00), (1724.59, 1492.77), 1.86
M 7.90000 0 (887.09, 1248.32, 0.00), (888.48, 1248.27), 13.86
M 7.90000 1 (805.54, 808.70, 0.00), (806.54, 809.44), 11.95
M 7.90000 2 (1300.71, 1310.13, 0.00), (1300.68, 1311.11), 9.77
M 7.90000 3 (1724.57, 1492.75, 0.00), (1724.74, 1492.92), 2.07
M 8.00000 0 (888.48, 1248.27, 0.00), (889.86, 1248.22), 13.82
M 8.00000 1 (806.50, 809.41, 0.00), (807.51, 810.16), 12.10
M 8.00000 2 (1300.68, 1311.10, 0.00), (1300.64, 1312.10), 9.93
M 8.00000 3 (1724.71, 1492.89, 0.00), (1724.92, 1493.08), 2.30
M 8.00000 4 (1649.89, 1653.48, 0.00), (1649.89, 1653.48), 0.00
M 8.10000 0 (889.86, 1248.22, 0.00), (891.25, 1248.17), 13.82
M 8.10000 1 (807.47, 810.13, 0.00), (808.51, 810.89), 12.34
M 8.10000 2 (1300.64, 1312.10, 0.00), (1300.61, 1313.12), 10.18
M 8.10000 3 (1724.88, 1493.05, 0.00), (1725.10, 1493.26), 2.51
M 8.10000 4 (1649.89, 1653.48, 0.00), (1649.89, 1653.45), 0.25
M 8.20000 0 (891.24, 1248.17, 0.00), (892.63, 1248.12), 13.87
M 8.20000 1 (808.47, 810.86, 0.00), (809.52, 811.64), 12.52
M 8.20000 2 (1300.61, 1313.11, 0.00), (1300.57, 1314.16), 10.38
M 8.20000 3 (1725.06, 1493.22, 0.00), (1725.30, 1493.45), 2.68
M 8.20000 4 (1649.89, 1653.45, 0.00), (1649.90, 1653.40), 0.51
M 8.30000 0 (892.63, 1248.12, 0.00), (894.01, 1248.07), 13.83
M 8.30000 1 (809.48, 811.61, 0.00), (810.55, 812.40), 12.77
M 8.30000 2 (1300.57, 1314.15, 0.00), (1300.54, 1315.21), 10.54
M 8.30000 3 (1725.26, 1493.41, 0.00), (1725.51, 1493.66), 2.86
M 8.30000 4 (1649.90, 1653.40, 0.00), (1649.91, 1653.33), 0.74
M 8.40000 0 (894.01, 1248.07, 0.00), (895.39, 1248.02), 13.76
M 8.40000 1 (810.50, 812.37, 0.00), (811.59, 813.17), 13.00
M 8.40000 2 (1300.54, 1315.20, 0.00), (1300.50, 1316.29), 10.75
M 8.40000 3 (1725.46, 1493.61, 0.00), (1725.74, 1493.88), 3.04
M 8.40000 4 (1649.91, 1653.33, 0.00), (1649.93, 1653.23), 1.00
M 8.50000 0 (895.38, 1248.02, 0.00), (896.77, 1247.97), 13.81
M 8.50000 1 (811.55, 813.14, 0.00), (812.66, 813.96), 13.26
M 8.50000 2 (1300.50, 1316.28, 0.00), (1300.47, 1317.39), 10.98
M 8.50000 3 (1725.68, 1493.82, 0.00), (1725.98, 1494.11), 3.23
M 8.50000 4 (1649.93, 1653.23, 0.00), (1649.95, 1653.11), 1.22
M 8.60000 0 (896.76, 1247.97, 0.00), (898.16, 1247.92), 13.86
M 8.60000 1 (812.61, 813.93, 0.00), (813.74, 814.75), 13.40
M 8.60000 2 (1300.47, 1317.38, 0.00), (1300.43, 1318.50), 11.12
M 8.60000 3 (1725.91, 1494.04, 0.00), (1726.23, 1494.35), 3.37
M 8.60000 4 (1649.95, 1653.11, 0.00), (1649.98, 1652.96), 1.46
M 8.70000 0 (898.15, 1247.92, 0.00), (899.54, 1247.87), 13.86
M 8.70000 1 (813.70, 814.72, 0.00), (814.86, 815.54), 13.62
M 8.70000 2 (1300.43, 1318.49, 0.00), (1300.39, 1319.63), 11.32
M 8.70000 3 (1726.15, 1494.28, 0.00), (1726.50, 1494.61), 3.61
M 8.70000 4 (1649.98, 1652.97, 0.00), (1650.00, 1652.80), 1.70
M 8.80000 0 (899.53, 1247.87, 0.00), (900.92, 1247.82), 13.85
M 8.80000 1 (814.81, 815.50, 0.00), (816.00, 816.31), 13.77
M 8.80000 2 (1300.39, 1319.62, 0.00), (1300.35, 1320.78), 11.46
M 8.80000 3 (1726.41, 1494.53, 0.00), (1726.78, 1494.88), 3.77
M 8.80000 4 (1650.00, 1652.80, 0.00), (1650.04, 1652.61), 1.92
M 8.90000 0 (900.92, 1247.82, 0.00), (902.30, 1247.77), 13.82
M 8.90000 1 (815.95, 816.28, 0.00), (817.16, 817.10), 14.00
M 8.90000 2 (1300.35, 1320.76, 0.00), (1300.31, 1321.95), 11.71
M 8.90000 3 (1726.69, 1494.79, 0.00), (1727.08, 1495.17), 4.02
M 8.90000 4 (1650.04, 1652.61, 0.00), (1650.07, 1652.39), 2.18
M 9.00000 0 (902.30, 1247.77, 0.00), (903.69, 1247.72), 13.86
M 9.00000 1 (817.11, 817.06, 0.00), (818.33, 817.90), 14.14
M 9.00000 2 (1300.31, 1321.93, 0.00), (1300.27, 1323.14), 11.93
M 9.00000 3 (1726.97, 1495.07, 0.00), (1727.40, 1495.48), 4.28
M 9.00000 4 (1650.07, 1652.40, 0.00), (1650.11, 1652.16), 2.40
M 9.00000 5 (1960.36, 1048.65, 0.00), (1960.36, 1048.65), 0.00
M 9.10000 0 (903.68, 1247.72, 0.00), (905.07, 1247.67), 13.82
M 9.10000 1 (818.27, 817.86, 0.00), (819.51, 818.70), 14.30
M 9.10000 2 (1300.27, 1323.13, 0.00), (1300.23, 1324.35), 12.11
M 9.10000 3 (1727.28, 1495.37, 0.00), (1727.74, 1495.80), 4.54
M 9.10000 4 (1650.11, 1652.16, 0.00), (1650.16, 1651.90), 2.60
M 9.10000 5 (1960.36, 1048.65, 0.00), (1960.36, 1048.68), 0.25
M 9.20000 0 (905.06, 1247.67, 0.00), (906.45, 1247.62), 13.83
M 9.20000 1 (819.46, 818.66, 0.00), (820.71, 819.52), 14.46
M 9.20000 2 (1300.23, 1324.34, 0.00), (1300.19, 1325.58), 12.32
M 9.20000 3 (1727.61, 1495.68, 0.00), (1728.09, 1496.14), 4.70
M 9.20000 4 (1650.16, 1651.91, 0.00), (1650.20, 1651.62), 2.81
M 9.20000 5 (1960.36, 1048.68, 0.00), (1960.36, 1048.73), 0.49
M 9.30000 0 (906.45, 1247.62, 0.00), (907.84, 1247.57), 13.86
M 9.30000 1 (820.65, 819.48, 0.00), (821.92, 820.34), 14.70
M 9.30000 2 (1300.19, 1325.57, 0.00), (1300.15, 1326.83), 12.54
M 9.30000 3 (1727.95, 1496.00, 0.00), (1728.45, 1496.49), 4.93
M 9.30000 4 (1650.20, 1651.63, 0.00), (1650.25, 1651.33), 2.99
M 9.30000 5 (1960.36, 1048.72, 0.00), (1960.37, 1048.80), 0.74
M 9.40000 0 (907.83, 1247.57, 0.00), (909.22, 1247.52), 13.80
M 9.40000 1 (821.87, 820.30, 0.00), (823.15, 821.18), 14.84
M 9.40000 2 (1300.15, 1326.82, 0.00), (1300.10, 1328.11), 12.80
M 9.40000 3 (1728.30, 1496.35, 0.00), (1728.78, 1496.90), 5.06
M 9.40000 4 (1650.25, 1651.33, 0.00), (1650.31, 1651.02), 3.13
M 9.40000 5 (1960.37, 1048.80, 0.00), (1960.37, 1048.90), 0.96
M 9.50000 0 (909.21, 1247.52, 0.00), (910.59, 1247.47), 13.77
M 9.50000 1 (823.09, 821.14, 0.00), (824.40, 822.03), 15.05
M 9.50000 2 (1300.10, 1328.10, 0.00), (1300.06, 1329.41), 12.96
M 9.50000 3 (1728.63, 1496.73, 0.00), (1729.13, 1497.32), 5.32
M 9.50000 4 (1650.31, 1651.03, 0.00), (1650.36, 1650.69), 3.29
M 9.50000 5 (1960.37, 1048.89, 0.00), (1960.38, 1049.02), 1.18
M 9.60000 0 (910.59, 1247.47, 0.00), (911.98, 1247.42), 13.83
M 9.60000 1 (824.34, 821.99, 0.00), (825.66, 822.89), 15.24
M 9.60000 2 (1300.06, 1329.40, 0.00), (1300.01, 1330.72), 13.16
M 9.60000 3 (1728.98, 1497.14, 0.00), (1729.49, 1497.77), 5.57
M 9.60000 4 (1650.36, 1650.70, 0.00), (1650.42, 1650.35), 3.53
M 9.60000 5 (1960.38, 1049.01, 0.00), (1960.38, 1049.16), 1.40
M 9.70000 0 (911.97, 1247.42, 0.00), (913.35, 1247.44), 13.77
M 9.70000 1 (825.60, 822.85, 0.00), (826.94, 823.75), 15.41
M 9.70000 2 (1300.01, 1330.71, 0.00), (1299.97, 1332.06), 13.39
M 9.70000 3 (1729.33, 1497.57, 0.00), (1729.87, 1498.23), 5.72
M 9.70000 4 (1650.42, 1650.35, 0.00), (1650.48, 1649.98), 3.67
M 9.70000 5 (1960.38, 1049.15, 0.00), (1960.39, 1049.32), 1.62
M 9.80000 0 (913.35, 1247.44, 0.00), (914.73, 1247.50), 13.77
M 9.80000 1 (826.87, 823.71, 0.00), (828.23, 824.63), 15.63
M 9.80000 2 (1299.97, 1332.05, 0.00), (1299.92, 1333.42), 13.53
M 9.80000 3 (1729.69, 1498.01, 0.00), (1730.25, 1498.71), 5.93
M 9.80000 4 (1650.48, 1649.99, 0.00), (1650.55, 1649.60), 3.84
M 9.80000 5 (1960.39, 1049.31, 0.00), (1960.40, 1049.50), 1.82
M 9.90000 0 (914.72, 1247.50, 0.00), (916.10, 1247.57), 13.77
M 9.90000 1 (828.17, 824.59, 0.00), (829.54, 825.52), 15.77
M 9.90000 2 (1299.92, 1333.40, 0.00), (1299.88, 1334.78), 13.69
M 9.90000 3 (1730.06, 1498.47, 0.00), (1730.65, 1499.20), 6.15
M 9.90000 4 (1650.55, 1649.61, 0.00), (1650.61, 1649.21), 4.03
M 9.90000 5 (1960.40, 1049.49, 0.00), (1960.41, 1049.71), 2.08
M 10.00000 0 (916.10, 1247.57, 0.00), (917.48, 1247.63), 13.77
M 10.00000 1 (829.47, 825.47, 0.00), (830.85, 826.42), 15.90
M 10.00000 2 (1299.88, 1334.77, 0.00), (1299.83, 1336.17), 13.85
M 10.00000 3 (1730.45, 1498.95, 0.00), (1731.07, 1499.71), 6.35
M 10.00000 4 (1650.61, 1649.21, 0.00), (1650.68, 1648.79), 4.27
M 10.00000 5 (1960.41, 1049.70, 0.00), (1960.42, 1049.93), 2.24
s 10.000000000 _0_ AGT  --- 8 tcp 40 [0 0 0 0] ------- [0:0 7:0 32 0] [0 0] 0 0
r 10.000000000 _0_ RTR  --- 8 tcp 40 [0 0 0 0] ------- [0:0 7:0 32 0] [0 0] 0 0
s 10.000000000 _1_ AGT  --- 9 tcp 40 [0 0 0 0] ------- [1:0 6:0 32 0] [0 0] 0 0
r 10.000000000 _1_ RTR  --- 9 tcp 40 [0 0 0 0] ------- [1:0 6:0 32 0] [0 0] 0 0
s 10.000000000 _2_ AGT  --- 10 tcp 40 [0 0 0 0] ------- [2:0 5:0 32 0] [0 0] 0 0
r 10.000000000 _2_ RTR  --- 10 tcp 40 [0 0 0 0] ------- [2:0 5:0 32 0] [0 0] 0 0
s 10.000000000 _3_ AGT  --- 11 tcp 40 [0 0 0 0] ------- [3:0 4:0 32 0] [0 0] 0 0
r 10.000000000 _3_ RTR  --- 11 tcp 40 [0 0 0 0] ------- [3:0 4:0 32 0] [0 0] 0 0
s 10.000000000 _3_ RTR  --- 11 tcp 60 [0 0 0 0] ------- [3:0 4:0 32 4] [0 0] 0 0
r 10.005074970 _4_ AGT  --- 11 tcp 60 [13a 4 3 800] ------- [3:0 4:0 32 4] [0 0] 1 0
s 10.005074970 _4_ AGT  --- 12 ack 40 [0 0 0 0] ------- [4:0 3:0 32 0] [0 0] 0 0
r 10.005074970 _4_ RTR  --- 12 ack 40 [0 0 0 0] ------- [4:0 3:0 32 0] [0 0] 0 0
s 10.005074970 _4_ RTR  --- 12 ack 60 [0 0 0 0] ------- [4:0 3:0 32 3] [0 0] 0 0
r 10.007340671 _3_ AGT  --- 12 ack 60 [13a 3 4 800] ------- [4:0 3:0 32 3] [0 0] 1 0
s 10.007340671 _3_ AGT  --- 13 tcp 1040 [0 0 0 0] ------- [3:0 4:0 32 0] [1 0] 0 0
r 10.007340671 _3_ RTR  --- 13 tcp 1040 [0 0 0 0] ------- [3:0 4:0 32 0] [1 0] 0 0
s 10.007340671 _3_ RTR  --- 13 tcp 1060 [0 0 0 0] ------- [3:0 4:0 32 4] [1 0] 0 0
s 10.007340671 _3_ AGT  --- 14 tcp 1040 [0 0 0 0] ------- [3:0 4:0 32 0] [2 0] 0 0
r 10.007340671 _3_ RTR  --- 14 tcp 1040 [0 0 0 0] ------- [3:0 4:0 32 0] [2 0] 0 0
s 10.007340671 _3_ RTR  --- 14 tcp 1060 [0 0 0 0] ------- [3:0 4:0 32 4] [2 0] 0 0
r 10.017546372 _4_ AGT  --- 13 tcp 1060 [13a 4 3 800] ------- [3:0 4:0 32 4] [1 0] 1 0
s 10.017546372 _4_ AGT  --- 15 ack 40 [0 0 0 0] ------- [4:0 3:0 32 0] [1 0] 0 0
r 10.017546372 _4_ RTR  --- 15 ack 40 [0 0 0 0] ------- [4:0 3:0 32 0] [1 0] 0 0
s 10.017546372 _4_ RTR  --- 15 ack 60 [0 0 0 0] ------- [4:0 3:0 32 3] [1 0] 0 0
r 10.019752072 _3_ AGT  --- 15 ack 60 [13a 3 4 800] ------- [4:0 3:0 32 3] [1 0] 1 0
s 10.019752072 _3_ AGT  --- 16 tcp 1040 [0 0 0 0] ------- [3:0 4:0 32 0] [3 0] 0 0
r 10.019752072 _3_ RTR  --- 16 tcp 1040 [0 0 0 0] ------- [3:0 4:0 32 0] [3 0] 0 0
s 10.019752072 _3_ RTR  --- 16 tcp 1060 [0 0 0 0] ------- [3:0 4:0 32 4] [3 0] 0 0
s 10.019752072 _3_ AGT  --- 17 tcp 1040 [0 0 0 0] ------- [3:0 4:0 32 0] [4 0] 0 0
r 10.019752072 _3_ RTR  --- 17 tcp 1040 [0 0 0 0] ------- [3:0 4:0 32 0] [4 0] 0 0
s 10.019752072 _3_ RTR  --- 17 tcp 1060 [0 0 0 0] ------- [3:0 4:0 32 4] [4 0] 0 0
r 10.029857773 _4_ AGT  --- 14 tcp 1060 [13a 4 3 800] ------- [3:0 4:0 32 4] [2 0] 1 0
s 10.029857773 _4_ AGT  --- 18 ack 40 [0 0 0 0] ------- [4:0 3:0 32 0] [2 0] 0 0
r 10.029857773 _4_ RTR  --- 18 ack 40 [0 0 0 0] ------- [4:0 3:0 32 0] [2 0] 0 0
s 10.029857773 _4_ RTR  --- 18 ack 60 [0 0 0 0] ------- [4:0 3:0 32 3] [2 0] 0 0
r 10.031903472 _3_ AGT  --- 18 ack 60 [13a 3 4 800] ------- [4:0 3:0 32 3] [2 0] 1 0
s 10.031903472 _3_ AGT  --- 19 tcp 1040 [0 0 0 0] ------- [3:0 4:0 32 0] [5 0] 0 0
r 10.031903472 _3_ RTR  --- 19 tcp 1040 [0 0 0 0] ------- [3:0 4:0 32 0] [5 0] 0 0
s 10.031903472 _3_ RTR  --- 19 tcp 1060 [0 0 0 0] ------- [3:0 4:0 32 4] [5 0] 0 0
s 10.031903472 _3_ AGT  --- 20 tcp 1040 [0 0 0 0] ------- [3:0 4:0 32 0] [6 0] 0 0
r 10.031903472 _3_ RTR  --- 20 tcp 1040 [0 0 0 0] ------- [3:0 4:0 32 0] [6 0] 0 0
s 10.031903472 _3_ RTR  --- 20 tcp 1060 [0 0 0 0] ------- [3:0 4:0 32 4] [6 0] 0 0
r 10.042069172 _4_ AGT  --- 16 tcp 1060 [13a 4 3 800] ------- [3:0 4:0 32 4] [3 0] 1 0
s 10.042069172 _4_ AGT  --- 21 ack 40 [0 0 0 0] ------- [4:0 3:0 32 0] [3 0] 0 0
r 10.042069172 _4_ RTR  --- 21 ack 40 [0 0 0 0] ------- [4:0 3:0 32 0] [3 0] 0 0
s 10.042069172 _4_ RTR  --- 21 ack 60 [0 0 0 0] ------- [4:0 3:0 32 3] [3 0] 0 0
r 10.052055437 _4_ AGT  --- 17 tcp 1060 [13a 4 3 800] ------- [3:0 4:0 32 4] [4 0] 1 0
s 10.052055437 _4_ AGT  --- 22 ack 40 [0 0 0 0] ------- [4:0 3:0 32 0] [4 0] 0 0
r 10.052055437 _4_ RTR  --- 22 ack 40 [0 0 0 0] ------- [4:0 3:0 32 0] [4 0] 0 0
s 10.052055437 _4_ RTR  --- 22 ack 60 [0 0 0 0] ------- [4:0 3:0 32 3] [4 0] 0 0
r 10.062281701 _4_ AGT  --- 19 tcp 1060 [13a 4 3 800] ------- [3:0 4:0 32 4] [5 0] 1 0
s 10.062281701 _4_ AGT  --- 23 ack 40 [0 0 0 0] ------- [4:0 3:0 32 0] [5 0] 0 0
r 10.062281701 _4_ RTR  --- 23 ack 40 [0 0 0 0] ------- [4:0 3:0 32 0] [5 0] 0 0
s 10.062281701 _4_ RTR  --- 23 ack 60 [0 0 0 0] ------- [4:0 3:0 32 3] [5 0] 0 0
r 10.064327398 _3_ AGT  --- 21 ack 60 [13a 3 4 800] ------- [4:0 3:0 32 3] [3 0] 1 0
s 10.064327398 _3_ AGT  --- 24 tcp 1040 [0 0 0 0] ------- [3:0 4:0 32 0] [7 0] 0 0
r 10.064327398 _3_ RTR  --- 24 tcp 1040 [0 0 0 0] ------- [3:0 4:0 32 0] [7 0] 0 0
s 10.064327398 _3_ RTR  --- 24 tcp 1060 [0 0 0 0] ------- [3:0 4:0 32 4] [7 0] 0 0
s 10.064327398 _3_ AGT  --- 25 tcp 1040 [0 0 0 0] ------- [3:0 4:0 32 0] [8 0] 0 0
r 10.064327398 _3_ RTR  --- 25 tcp 1040 [0 0 0 0] ------- [3:0 4:0 32 0] [8 0] 0 0
s 10.064327398 _3_ RTR  --- 25 tcp 1060 [0 0 0 0] ------- [3:0 4:0 32 4] [8 0] 0 0
r 10.074573096 _4_ AGT  --- 20 tcp 1060 [13a 4 3 800] ------- [3:0 4:0 32 4] [6 0] 1 0
s 10.074573096 _4_ AGT  --- 26 ack 40 [0 0 0 0] ------- [4:0 3:0 32 0] [6 0] 0 0
r 10.074573096 _4_ RTR  --- 26 ack 40 [0 0 0 0] ------- [4:0 3:0 32 0] [6 0] 0 0
s 10.074573096 _4_ RTR  --- 26 ack 60 [0 0 0 0] ------- [4:0 3:0 32 3] [6 0] 0 0
r 10.084579358 _4_ AGT  --- 24 tcp 1060 [13a 4 3 800] ------- [3:0 4:0 32 4] [7 0] 1 0
s 10.084579358 _4_ AGT  --- 27 ack 40 [0 0 0 0] ------- [4:0 3:0 32 0] [7 0] 0 0
r 10.084579358 _4_ RTR  --- 27 ack 40 [0 0 0 0] ------- [4:0 3:0 32 0] [7 0] 0 0
s 10.084579358 _4_ RTR  --- 27 ack 60 [0 0 0 0] ------- [4:0 3:0 32 3] [7 0] 0 0
r 10.086585054 _3_ AGT  --- 22 ack 60 [13a 3 4 800] ------- [4:0 3:0 32 3] [4 0] 1 0
s 10.086585054 _3_ AGT  --- 28 tcp 1040 [0 0 0 0] ------- [3:0 4:0 32 0] [9 0] 0 0
r 10.086585054 _3_ RTR  --- 28 tcp 1040 [0 0 0 0] ------- [3:0 4:0 32 0] [9 0] 0 0
s 10.086585054 _3_ RTR  --- 28 tcp 1060 [0 0 0 0] ------- [3:0 4:0 32 4] [9 0] 0 0
s 10.086585054 _3_ AGT  --- 29 tcp 1040 [0 0 0 0] ------- [3:0 4:0 32 0] [10 0] 0 0
r 10.086585054 _3_ RTR  --- 29 tcp 1040 [0 0 0 0] ------- [3:0 4:0 32 0] [10 0] 0 0
s 10.086585054 _3_ RTR  --- 29 tcp 1060 [0 0 0 0] ------- [3:0 4:0 32 4] [10 0] 0 0
r 10.088811315 _3_ AGT  --- 23 ack 60 [13a 3 4 800] ------- [4:0 3:0 32 3] [5 0] 1 0
s 10.088811315 _3_ AGT  --- 30 tcp 1040 [0 0 0 0] ------- [3:0 4:0 32 0] [11 0] 0 0
r 10.088811315 _3_ RTR  --- 30 tcp 1040 [0 0 0 0] ------- [3:0 4:0 32 0] [11 0] 0 0
s 10.088811315 _3_ RTR  --- 30 tcp 1060 [0 0 0 0] ------- [3:0 4:0 32 4] [11 0] 0 0
s 10.088811315 _3_ AGT  --- 31 tcp 1040 [0 0 0 0] ------- [3:0 4:0 32 0] [12 0] 0 0
r 10.088811315 _3_ RTR  --- 31 tcp 1040 [0 0 0 0] ------- [3:0 4:0 32 0] [12 0] 0 0
s 10.088811315 _3_ RTR  --- 31 tcp 1060 [0 0 0 0] ------- [3:0 4:0 32 4] [12 0] 0 0
r 10.090917576 _3_ AGT  --- 26 ack 60 [13a 3 4 800] ------- [4:0 3:0 32 3] [6 0] 1 0
s 10.090917576 _3_ AGT  --- 32 tcp 1040 [0 0 0 0] ------- [3:0 4:0 32 0] [13 0] 0 0
r 10.090917576 _3_ RTR  --- 32 tcp 1040 [0 0 0 0] ------- [3:0 4:0 32 0] [13 0] 0 0
s 10.090917576 _3_ RTR  --- 32 tcp 1060 [0 0 0 0] ------- [3:0 4:0 32 4] [13 0] 0 0
s 10.090917576 _3_ AGT  --- 33 tcp 1040 [0 0 0 0] ------- [3:0 4:0 32 0] [14 0] 0 0
r 10.090917576 _3_ RTR  --- 33 tcp 1040 [0 0 0 0] ------- [3:0 4:0 32 0] [14 0] 0 0
s 10.090917576 _3_ RTR  --- 33 tcp 1060 [0 0 0 0] ------- [3:0 4:0 32 4] [14 0] 0 0
M 10.10000 0 (917.47, 1247.63, 0.00), (918.85, 1247.70), 13.76
M 10.10000 1 (830.78, 826.37, 0.00), (832.19, 827.33), 16.16
M 10.10000 2 (1299.83, 1336.15, 0.00), (1299.78, 1337.54), 13.78
M 10.10000 3 (1730.85, 1499.44, 0.00), (1731.50, 1500.23), 6.57
M 10.10000 4 (1650.68, 1648.79, 0.00), (1650.76, 1648.34), 4.52
M 10.10000 5 (1960.42, 1049.93, 0.00), (1960.43, 1050.18), 2.49
r 10.101023272 _4_ AGT  --- 25 tcp 1060 [13a 4 3 800] ------- [3:0 4:0 32 4] [8 0] 1 0
s 10.101023272 _4_ AGT  --- 34 ack 40 [0 0 0 0] ------- [4:0 3:0 32 0] [8 0] 0 0
r 10.101023272 _4_ RTR  --- 34 ack 40 [0 0 0 0] ------- [4:0 3:0 32 0] [8 0] 0 0
s 10.101023272 _4_ RTR  --- 34 ack 60 [0 0 0 0] ------- [4:0 3:0 32 3] [8 0] 0 0
r 10.111049532 _4_ AGT  --- 28 tcp 1060 [13a 4 3 800] ------- [3:0 4:0 32 4] [9 0] 1 0
s 10.111049532 _4_ AGT  --- 35 ack 40 [0 0 0 0] ------- [4:0 3:0 32 0] [9 0] 0 0
r 10.111049532 _4_ RTR  --- 35 ack 40 [0 0 0 0] ------- [4:0 3:0 32 0] [9 0] 0 0
s 10.111049532 _4_ RTR  --- 35 ack 60 [0 0 0 0] ------- [4:0 3:0 32 3] [9 0] 0 0
r 10.113195226 _3_ AGT  --- 27 ack 60 [13a 3 4 800] ------- [4:0 3:0 32 3] [7 0] 1 0
s 10.113195226 _3_ AGT  --- 36 tcp 1040 [0 0 0 0] ------- [3:0 4:0 32 0] [15 0] 0 0
r 10.113195226 _3_ RTR  --- 36 tcp 1040 [0 0 0 0] ------- [3:0 4:0 32 0] [15 0] 0 0
s 10.113195226 _3_ RTR  --- 36 tcp 1060 [0 0 0 0] ------- [3:0 4:0 32 4] [15 0] 0 0
s 10.113195226 _3_ AGT  --- 37 tcp 1040 [0 0 0 0] ------- [3:0 4:0 32 0] [16 0] 0 0
r 10.113195226 _3_ RTR  --- 37 tcp 1040 [0 0 0 0] ------- [3:0 4:0 32 0] [16 0] 0 0
s 10.113195226 _3_ RTR  --- 37 tcp 1060 [0 0 0 0] ------- [3:0 4:0 32 4] [16 0] 0 0